18
 energy: -19.344560331566 gnorm: 0.001743204717 xtb: 6.6.0 (8843059)
C           -2.62907863180577        0.79926955348825        1.02606449420877
C           -1.35113068933096        0.79595808319038        0.71386547088897
C           -0.83284283608036        0.37573474516020       -0.62537853104331
C           -0.02523070874961       -0.92292868825668       -0.53921581797546
C            1.28947720649109       -0.76293027556221        0.21716243972299
C            2.32012289031719        0.00625837799864       -0.59422752057286
H           -3.38112113067787        0.51413963779761        0.29995453661439
H           -2.99277558356662        1.08999230879817        2.00365834086917
H           -0.59929711343777        1.08365736761902        1.44207007176033
H           -1.67860221431255        0.21693349268766       -1.29738784146411
H           -0.19829344657769        1.16220723743804       -1.04065730690009
H            0.19673688448357       -1.26656435209121       -1.55110760539498
H           -0.63959688431403       -1.67698446105098       -0.04463042318199
H            1.11122245527922       -0.24396147143194        1.15889393406836
H            1.68883880756458       -1.75226208635599        0.44082033977671
H            1.94190831469316        0.99667700031074       -0.84596011237249
H            3.24150655322546        0.11473055598270       -0.02380741119604
H            2.53815612679902       -0.52992602572250       -1.51808605780817
18
 energy: -19.319257695782 gnorm: 0.071088716138 xtb: 6.6.0 (8843059)
C           -2.55738336431166        1.40443920690761        0.89148721117867
C           -1.75405365574158        0.37393998998329        0.79505120250172
C           -0.97209485934317        0.08367405115139       -0.46594268177025
C            0.12204644887304       -0.99129553074937       -0.46040615363321
C            1.59935131735715       -0.83577650267011        0.09503396962265
C            2.33049323634806        0.24222368390494       -0.65710274892970
H           -2.58458368811760        1.97378876449554       -0.03003538664966
H           -3.10883884037547        1.64548952953203        1.79164081528947
H           -1.53257313573617       -0.32841485511252        1.59251630873516
H           -1.77065374709950       -0.35175888922916       -1.06995024480926
H           -0.67238838703668        1.05211306992050       -0.87331262059768
H            0.30889443386556       -1.38571925517843       -1.46080498763428
H           -0.35691753479811       -1.72499978917384        0.18992621038991
H            1.49676645970434       -0.62821322841592        1.16009519689625
H            2.05439926285045       -1.82612868720937        0.07444527115380
H            2.01755919870353        1.20692308094594       -0.25864072075357
H            3.39054552917776        0.09311800748457       -0.45672854143723
H            1.95771207412161        0.19958970181424       -1.68070588211411
18
 energy: -19.327997205019 gnorm: 0.086210722984 xtb: 6.6.0 (8843059)
C           -1.77333988376492        1.33674024502467        1.19260158740118
C           -1.80835731070540        0.22543975297470        0.47922000220064
C           -1.04822758220138       -0.11206810611369       -0.81280094517114
C            0.01197805508342       -1.10481392342520       -0.43956161720910
C            1.23761509208485       -0.42093268420215        0.35833644758588
C            2.13038763865076        0.32313142012833       -0.60857496568245
H           -1.16771173797971        2.19363865386321        0.92233814335496
H           -2.32477141976184        1.36990415433059        2.12389549236426
H           -2.41180939319230       -0.61753484019769        0.80100558957113
H           -1.71710428189670       -0.48916232743850       -1.58902719165828
H           -0.60121925516034        0.77900569394006       -1.25981258826895
H            0.44034881517072       -1.48213588444448       -1.36983399743638
H           -0.32528335801885       -2.00467070359150        0.07732631398920
H            0.70117683092137        0.20206833734129        1.07392383073348
H            1.72151796071562       -1.26717430236235        0.84619207452209
H            1.46148962805138        0.87258963336413       -1.27040253109210
H            2.71355016934601        1.01387478754686       -0.00121326619815
H            2.92957153588035       -0.28779847858349       -1.02883270265207
18
 energy: -19.322139376099 gnorm: 0.081324447481 xtb: 6.6.0 (8843059)
C           -1.66512275817340        1.36758927252139        1.07583389112169
C           -1.79376077296310        0.14816819326385        0.57126199289250
C           -1.05721383468905       -0.14953253570673       -0.74772946581758
C            0.04342583225391       -1.17404938354880       -0.52658409818652
C            1.10404142577151       -0.39131395533375        0.26183936191384
C            2.10528824652432        0.39098132917090       -0.46371616208388
H           -1.15626619668927        2.15660657582731        0.53489086735927
H           -2.13031134812130        1.82107322900045        1.94211144477566
H           -2.32260203294717       -0.67874528118175        1.03477852156230
H           -1.74760395371543       -0.43537771556967       -1.54383077451044
H           -0.57901735357450        0.79338854042401       -1.02318607044056
H            0.57397293226948       -1.50468134543651       -1.42128089133241
H           -0.27916842572853       -2.03842842861826        0.05603278247761
H            0.54251901076453        0.23665930688935        0.95343443411749
H            1.52114590975594       -1.21061274147578        0.84755544124139
H            1.83327506803702        1.33307256540883       -0.93891880443208
H            2.92864083121053        0.70926034445935        0.17415699778638
H            2.39608933608920       -0.23116742426178       -1.31042300006248
18
 energy: -19.322768381667 gnorm: 0.074183609278 xtb: 6.6.0 (8843059)
C           -2.31406789016185        1.40747625934271        0.74890154540918
C           -1.49314514150482        0.40012498226028        0.82262145843844
C           -0.95988391657261        0.02100269041347       -0.46906455279013
C            0.00812978387689       -1.14475921853588       -0.53801807855613
C            1.40563241794758       -0.84056720040036        0.07962760532815
C            2.14533031070694        0.38845227913487       -0.44433733511906
H           -2.48920048224938        1.94560047028153       -0.17514042815749
H           -2.89042871355084        1.82614078764519        1.56438492168161
H           -1.36404809575855       -0.19337192716302        1.72228912825652
H           -1.80777456291488       -0.28452690725901       -1.08538946260556
H           -0.44126892859977        0.85688293497880       -0.94444974500987
H            0.12663108639445       -1.39156401327818       -1.59458085727804
H           -0.40844913558445       -1.99099673134362        0.01062086901640
H            1.16436403393344       -0.72696241299646        1.13643652984724
H            1.99399647072639       -1.75794570143609        0.05651042227840
H            1.62657010276480        1.23024874865769        0.01349579791908
H            3.21300410540672        0.32035019805111       -0.24055324568310
H            2.19263469290021        0.63812149568135       -1.50451391980451
18
 energy: -19.323906102497 gnorm: 0.078585469451 xtb: 6.6.0 (8843059)
C           -2.44717030861458        0.85914708872313        1.01905207305038
C           -1.23791263319603        0.94582001976884        0.58072773880298
C           -0.81194470148228        0.26947333801100       -0.71583739822384
C           -0.03165616537431       -1.08263339685058       -0.53834026816202
C            1.24412080649281       -0.86811487591060        0.27487831347424
C            2.09276366062271        0.18792433464408       -0.44427381756702
H           -3.22692920680705        0.52369645718509        0.34558968152294
H           -2.68510894355067        1.15845691364425        2.03210871407586
H           -0.48969278050043        1.23734118034857        1.31113105875556
H           -1.73233302121494        0.02706818408202       -1.25085922897137
H           -0.28059323070910        0.89584006005784       -1.43623917116246
H            0.19031033243017       -1.62629171326209       -1.45836558312068
H           -0.79367389777622       -1.67214241362479       -0.02602326281168
H            0.94432253790972       -0.53315934640016        1.26779692927377
H            1.87277042873488       -1.75754934511974        0.23020221737371
H            1.60689733866448        1.12759986151209       -0.70559439537433
H            2.87525466404282        0.50577767683209        0.24330909643306
H            2.44017124609974       -0.37415882328139       -1.31140547817897
18
 energy: -19.319160346360 gnorm: 0.088480540282 xtb: 6.6.0 (8843059)
C           -1.95939678898777        0.35604887287975        1.27515013175847
C           -1.53876210790202        1.03616317985786        0.27318110508522
C           -0.98126081697471        0.46099500218299       -0.95897434028616
C           -0.09663283904639       -0.75091187540231       -0.55587710163907
C            1.00683488383441       -0.47095495932173        0.43176176372404
C            2.31038652899395       -0.29535991668066       -0.33725489574607
H           -1.86017678512980       -0.72288512917892        1.28777786848400
H           -2.35562216125386        0.89643437515728        2.12572281060078
H           -1.55566303711525        2.12148471906298        0.26327858214930
H           -1.68943989089549        0.09341824599421       -1.70428836941936
H           -0.21890308156529        1.13114171622463       -1.36315553422974
H            0.33256612668756       -1.07535983247268       -1.50550957958460
H           -0.71178732851583       -1.52865600094328       -0.10050950560672
H            0.92256640175806        0.40588252094248        1.07364683106235
H            1.01369869225012       -1.27734378983891        1.16523290772848
H            2.20301222710646        0.69720850636763       -0.77385915851674
H            3.02375294187417       -0.46987266998244        0.46695080709624
H            2.42249259117845       -1.05160107818763       -1.11447965534216
18
 energy: -19.321593586027 gnorm: 0.068427762395 xtb: 6.6.0 (8843059)
C           -1.90675933203262        0.56995301057699        1.48591665140795
C           -1.99233000172793        0.87792947503854        0.20812564885094
C           -0.92942835438161        0.64865239162464       -0.90324471535926
C            0.00011077543685       -0.63141696348270       -0.71105240392386
C            1.08176643912922       -0.65941869493138        0.35991841551240
C            2.47198318429586       -0.48417307423601       -0.28534263661428
H           -1.13739341959684        0.04814236608136        2.04259654701968
H           -2.75445923588116        0.75439793051188        2.13389031978321
H           -2.78308903190987        1.47135113532816       -0.24004556186674
H           -1.37791362011744        0.59992724276909       -1.89753345726402
H           -0.25249721548859        1.50414367671288       -0.84368542468037
H            0.45451871556951       -0.85191917948838       -1.67861236358999
H           -0.69779343833923       -1.45144017909639       -0.53455233683048
H            0.96270139675508        0.19146020187942        1.03058242065185
H            1.04911270279008       -1.58170926274231        0.94009410711441
H            2.29292989934726       -0.52156905490216       -1.35953351422453
H            2.82234735425645        0.52852707207451       -0.09098104204613
H            3.13811628732161       -1.29785528046803        0.00229402424660
18
 energy: -19.318045339283 gnorm: 0.073586542598 xtb: 6.6.0 (8843059)
C           -2.03200198339510        0.66684453224537        1.41532077930665
C           -1.91272483429988        0.75051384523929        0.11789726536960
C           -0.57375867809537        0.78335967925862       -0.60582142230886
C           -0.14524420644133       -0.68559121479314       -0.58734964944091
C            1.05972164176839       -0.87656785742718        0.25640088417929
C            2.32865309333066       -0.33756057227766       -0.43225955676110
H           -1.27926694732232        0.95488165298053        2.13956330967866
H           -2.93333321968872        0.51520612530750        1.99591764351493
H           -2.72656248423484        0.52654718425188       -0.56460823581395
H           -0.75723210395299        1.16098527931900       -1.61372007056563
H            0.12610413098151        1.55229852485013       -0.27030171990191
H            0.08441714548521       -0.89893753723543       -1.63282517862979
H           -0.97540114814181       -1.34458812388348       -0.32807538380459
H            0.83740373796872       -0.28139390988328        1.14201045162478
H            1.27768182862669       -1.92831069409941        0.44246629179711
H            3.08665002585127       -1.11622839477199       -0.51264420255057
H            2.11719253924940        0.01002852769008       -1.44248697172786
H            2.86730651431322        0.48952120595338        0.03070376426229
18
 energy: -19.313353535920 gnorm: 0.096935598187 xtb: 6.6.0 (8843059)
C           -2.27755942377776        1.21938651921375        1.35201805779526
C           -1.92430315304474        0.57347257835762        0.28473191395559
C           -0.45476484408959        0.59063604378381       -0.25114093390141
C           -0.17495852499060       -0.83474932808813       -0.74047735850849
C            1.19338429859055       -1.12867194185868       -0.17352817135756
C            2.34622483835461       -0.11251647374758       -0.34651061376024
H           -1.63035471504063        1.87610018109017        1.92118929003831
H           -3.26816285813870        1.12375553030961        1.77868475826927
H           -2.69866037968285        0.03864458962743       -0.25622691336444
H           -0.42725688634248        1.26532003582516       -1.10914332202302
H            0.06100278077845        0.90696778609760        0.65856580744588
H           -0.15151327097129       -0.85427151423456       -1.83150864760790
H           -0.88594412992708       -1.54065833828258       -0.30821290762324
H            1.12975374806704       -1.46817551452174        0.86022714817128
H            1.55127727771951       -2.06821858381354       -0.59478189494435
H            2.88531738238012        0.13251943137569        0.56819220643592
H            3.12172472693311       -0.64730146129567       -0.89304342344095
H            2.23741689569054        0.79654945670415       -0.93837780564446
18
 energy: -19.323338334419 gnorm: 0.078620513477 xtb: 6.6.0 (8843059)
C           -2.56956844259563        1.49429931167390        1.03007425403035
C           -1.99748788178173        0.43663378437372        0.56259832164643
C           -0.49315621735792        0.43537461649641        0.34607362962770
C           -0.05604996368266       -0.57474158206586       -0.71466038475443
C            1.32938081763345       -1.26032305186649       -0.41756332490095
C            2.50785521413250       -0.23624719677324       -0.60406204026068
H           -2.09930999134308        2.43137301303248        1.30366613521249
H           -3.64915530241979        1.41297840168067        1.01099406549045
H           -2.54884814888413       -0.45051465536276        0.26717312542033
H           -0.30207407102586        1.48964741881083        0.13602661085647
H           -0.00028569860699        0.10292806015841        1.26270131295882
H            0.08288141268391       -0.24871824413199       -1.74698152035423
H           -0.78131886606594       -1.38899860876028       -0.75504767143915
H            1.33525926018934       -1.59119395237251        0.62092185888485
H            1.44245909648077       -2.04503432515613       -1.16571537903360
H            2.00504799569080        0.68455426240951       -0.89843289128966
H            3.09915162070596       -0.19060949476807        0.30938141368913
H            3.18525020688954       -0.49430722761239       -1.41836410906676
18
 energy: -19.317718351795 gnorm: 0.077602917347 xtb: 6.6.0 (8843059)
C           -2.35194360125239        1.59284143218435        0.46055180450569
C           -1.99684885714728        0.38161450531366        0.79991791325954
C           -0.49158371824035       -0.05336362221021        0.88005084343041
C           -0.10290513530587       -0.46998989800602       -0.52325462637496
C            1.26762695303146       -1.13767601521300       -0.66227924395561
C            2.38161664694503       -0.04561706203122       -0.75980278236993
H           -1.60399872423832        2.29627454384317        0.11433946671831
H           -3.33916633330082        1.99479566824243        0.65110098503421
H           -2.69097248157760       -0.33713617534561        1.22405986814125
H            0.05802006384183        0.81590820230830        1.24669161420788
H           -0.12163485585135       -0.76375251592011        1.62310792698479
H           -0.11494886444421        0.34456218358905       -1.24964290157406
H           -0.78880246891291       -1.23271059233645       -0.89536026977774
H            1.39555664796870       -1.74213190641935        0.23562311901183
H            1.33071679446616       -1.78728150707691       -1.53538997757199
H            2.98185780201398       -0.20340275218395       -1.65543597916418
H            1.90236081824732        0.92301779526193       -0.89453776111024
H            2.94036513504415       -0.26950792243023        0.14916354342816
18
 energy: -19.323144044318 gnorm: 0.080360847921 xtb: 6.6.0 (8843059)
C           -1.92743786528913        1.62768770466750        0.23898397587185
C           -1.64558701057909        0.57719906599214        1.01809892793012
C           -0.54649828238757       -0.51044368151087        0.87018530030944
C           -0.29451509966925       -0.82887979802130       -0.56368567495460
C            1.16618636594140       -0.95397331618902       -0.78557033310723
C            2.01707590828705        0.34127866235280       -0.52855235711760
H           -1.40385478566588        1.86648220259020       -0.67913399468986
H           -2.76028578260561        2.30100354495238        0.39865567906194
H           -2.24821731780644        0.51519861859693        1.91882041771772
H            0.35539854458557       -0.08379208592925        1.31366450903330
H           -0.96942627661356       -1.38675526537842        1.36703365551743
H           -0.64865045482726       -0.06462683393246       -1.25779346824718
H           -0.73098895365242       -1.77886629559974       -0.87621863048739
H            1.63389973716144       -1.81698540512234       -0.31184475825611
H            1.25246493153326       -1.19794139759517       -1.84449694111901
H            2.31800274328752        0.46373207379181        0.51154033945206
H            2.87673997001281        0.21124556836653       -1.18441993234744
H            1.51445126698508        1.18938913163822       -0.99398110751075
18
 energy: -19.323161836850 gnorm: 0.076511694400 xtb: 6.6.0 (8843059)
C           -1.52415638605077        1.58501462948055        0.24121983866607
C           -1.28826199892605        0.65084336491835        1.16127112630833
C           -0.94290799368736       -0.74743682539128        0.76900468575612
C           -0.29705759860488       -1.03008302192507       -0.62605818084686
C            1.24547976112979       -0.87563588538987       -0.69195311208200
C            1.64992857539589        0.63702738709548       -0.63904894849496
H           -1.41988256764934        1.38769289283000       -0.81910735800094
H           -1.91140116154837        2.56959460920911        0.47171641425334
H           -1.41485635972417        0.95370082546789        2.19594874336347
H           -0.16284693272134       -1.02364932756953        1.48127898586269
H           -1.84799131846757       -1.34021656540547        0.92094127098476
H           -0.84584054680769       -0.51801902320986       -1.41846452048607
H           -0.48716193564808       -2.10304740715763       -0.68322800669205
H            1.59769826213514       -1.32706743750270        0.23546980293651
H            1.65924080747515       -1.23355259252591       -1.63481439471988
H            0.84280885403172        1.26951125493443       -1.00764972133596
H            1.83676582322041        1.04997253849956        0.35123450713061
H            2.45660426955819        0.93118772771246       -1.31083078089432
18
 energy: -19.314266149731 gnorm: 0.105318123984 xtb: 6.6.0 (8843059)
C           -1.51728122365732        1.58222201250346        0.45694209671465
C           -0.98516139933410        0.53430010411187        1.10674998230211
C           -1.14656775818055       -0.82817538250900        0.60873223570263
C           -0.19635752115064       -1.04649341263385       -0.63604619123154
C            1.17642452410051       -0.67569264722002       -0.28549475042854
C            1.50335581836727        0.63840657946985       -0.97853838521950
H           -2.26485838249498        1.25438664056406       -0.25562721597067
H           -1.13836234052505        2.59268275662962        0.54568035759347
H           -0.12338117877247        0.68042597265365        1.75040254916019
H           -1.10558440477105       -1.61174635178697        1.36798198236285
H           -2.17574991475349       -0.94667608064264        0.26175955127951
H           -0.62871418381736       -0.37627270722411       -1.38113141703847
H           -0.42222310615790       -2.04513782148393       -1.01334541050636
H            1.39103351432485       -0.48806160352261        0.76650294741361
H            1.98958308669299       -1.36493141180767       -0.51355845647071
H            1.76529351007214        0.52501335438428       -2.03014441301136
H            0.77949241912859        1.45078269952660       -0.93206266231186
H            2.34004366096769        1.12775357073948       -0.47949952393969
18
 energy: -19.321097336734 gnorm: 0.083944593502 xtb: 6.6.0 (8843059)
C           -2.15187487225292        1.55659658710081        0.95562550779567
C           -1.17002601861490        0.64844828090963        1.08069378564586
C           -1.22140861261330       -0.69650901348789        0.47349058207643
C           -0.09791770707355       -0.81601204449116       -0.65728920756879
C            1.39934087837767       -0.62695598743158       -0.21195296654133
C            2.04008251546766        0.20913047974565       -1.34246048779771
H           -3.03192932439843        1.16833501640729        0.45676703040850
H           -2.04925357131097        2.55263485179002        1.36776815003353
H           -0.15817686547395        0.77819059820536        1.45168538558041
H           -0.88711357550253       -1.38037115606735        1.25624385568491
H           -2.19410271017341       -0.84948162554215        0.00008384406862
H           -0.47587035765603       -0.00045928328127       -1.27640596361044
H           -0.23291118062769       -1.81042796507954       -1.08574498700989
H            1.48689536563851       -0.04144554232596        0.70318271469121
H            1.93120029903803       -1.57738924568650       -0.16621289848434
H            1.84511904643345       -0.28103498718489       -2.29591299619949
H            1.48709619539561        1.14334299441584       -1.42932991208527
H            3.12060325489731        0.25399985897618       -1.20458922444075
18
 energy: -19.319009549095 gnorm: 0.086490691728 xtb: 6.6.0 (8843059)
C           -2.68141574365743        1.13493242723274        1.49200279451654
C           -1.46430457996637        0.89611171671134        0.94043073554848
C           -1.03082160213073       -0.43236235436316        0.32896754860809
C            0.07938657442808       -0.37110550961709       -0.71447820632779
C            1.49917058554048       -0.30057367091718       -0.29481760477072
C            2.38063955321295       -0.58556768294898       -1.49039175041940
H           -3.63623855432989        0.65593096338153        1.31041606354966
H           -2.75999632988803        2.01722177261207        2.11479938595644
H           -0.70361629713750        1.63507218785544        1.17194164951299
H           -0.67800671240155       -1.11273942255206        1.10661269778789
H           -1.89321591353176       -0.89919562460603       -0.15268707797005
H           -0.23402757363822        0.42759157488150       -1.38911488020983
H           -0.11200686103325       -1.29121217026227       -1.26894453845044
H            1.75521517886698        0.65833321939635        0.15562703320079
H            1.72129779131513       -1.10852661222941        0.40243524200514
H            1.97463925360783       -1.52280674888585       -1.86998535982740
H            2.13491516563456        0.32999222260155       -2.02654734964308
H            3.45926103003152       -0.63532381031144       -1.33990279073001
18
 energy: -19.313615515308 gnorm: 0.080856087480 xtb: 6.6.0 (8843059)
C           -2.64376611393144        0.85961464076941        1.67201543141162
C           -1.52923293731291        0.97430715146278        0.95673784537209
C           -1.06623087241217       -0.25880482089632        0.23595176582064
C            0.04443118935835       -0.02413441046408       -0.88301767046553
C            1.52823165430262       -0.17593473967504       -0.39140047356031
C            2.46748719109863       -0.98402916889037       -1.33480380340357
H           -3.12748447265228       -0.10862135345108        1.72337952191715
H           -3.23159326145669        1.55565102286568        2.25723122218234
H           -1.14699169510052        1.98608345364982        0.86450503171028
H           -0.76585439558818       -0.93494130482550        1.03890674861660
H           -1.89976042935442       -0.79177324093940       -0.22753665000260
H           -0.27057151326474        0.91763324113906       -1.33592721924231
H           -0.18193035849303       -0.79069425252981       -1.62585485139716
H            2.10990182116814        0.73499414217577       -0.25058153671317
H            1.55696267925417       -0.67729167828451        0.57612509466534
H            1.95330302020168       -1.91803991268557       -1.55971082250591
H            2.34295236097062       -0.43122742562353       -2.26485458909626
H            3.46990644300962       -0.98297218004011       -0.90619992200190
18
 energy: -19.323475401109 gnorm: 0.075976447797 xtb: 6.6.0 (8843059)
C           -2.28722433889644        1.02299603902882        1.80614757090775
C           -1.38212408207332        0.91041372832864        0.85561138222340
C           -1.22076108524658       -0.33241078765865        0.02821363523107
C           -0.06518627668786       -0.32624625311579       -1.05276538309846
C            1.21193328202511       -0.36807190398067       -0.29114828212600
C            2.46688806655452       -0.56434681774567       -1.13194417554969
H           -3.00372032076118        0.24152712287336        2.02984938482227
H           -2.41106127767097        1.92183300356526        2.39711410774033
H           -0.69684430115434        1.70051149180594        0.56501941598355
H           -0.90550541302947       -1.14578556600726        0.68484032585064
H           -2.17833974190330       -0.47372870861394       -0.47846253000766
H           -0.06314730158871        0.64151882048013       -1.55745011231523
H           -0.23729799547668       -1.21051212288566       -1.66848613666917
H            1.42832739791440        0.51317430637681        0.31262343407955
H            1.24795852575284       -1.30273703354484        0.26866709531825
H            2.79825957960777       -1.59526392571724       -1.25338331612463
H            2.49562318730162        0.05175740870420       -2.02954267086797
H            3.26415330493436       -0.19875584268294       -0.48444267219233
18
 energy: -19.315111354407 gnorm: 0.090511466349 xtb: 6.6.0 (8843059)
C           -1.65999816764378        1.05317948465021        1.78369155373186
C           -1.28023066465056        1.00989988021688        0.53182830117225
C           -1.47458573861341       -0.30369375692978       -0.21142078729445
C           -0.18641721577840       -0.76274495491426       -0.99318890887006
C            1.11160154764892       -0.77636377332808       -0.13761663118376
C            2.24991268324395        0.08006427680097       -0.78796949813394
H           -1.99149289436425        0.19071931077177        2.34970952903883
H           -1.60789046880110        2.02675479073824        2.25477630042912
H           -0.94674508279177        1.80360587395808       -0.12932577090393
H           -1.63639699852950       -1.04154406083016        0.57694291213543
H           -2.39041734345993       -0.30867195503654       -0.80713553446960
H           -0.14317765467910       -0.19091917846045       -1.92185768356009
H           -0.35169115860792       -1.77948870845180       -1.35315735552668
H            0.90146257515257       -0.18375817633014        0.75267646819688
H            1.52792127921230       -1.70843279092049        0.24476433570084
H            2.63395605034735       -0.23432513684509       -1.75802857127638
H            2.21814158453992        1.15266779983177       -0.97399491338787
H            3.08325859536018       -0.07870380272209       -0.10322567849381
18
 energy: -19.324235581939 gnorm: 0.069428568069 xtb: 6.6.0 (8843059)
C           -0.78506242033198        1.26250080077845        1.35468343751815
C           -1.58189862490872        0.87688467985220        0.41537657625356
C           -1.54556071634001       -0.52925717298896       -0.14741024541028
C           -0.28643378130843       -0.69473714541655       -1.06797682142986
C            1.03794360591855       -0.91613334200588       -0.37451347304319