 Entering Gaussian System, Link 0=g16
 Input=0-2-Ligand-M.com
 Output=0-2-Ligand-M.log
 Initial command:
 /public/home/client10/Gaussian/g16/l1.exe "/tmp/Gau-45934.inp" -scrdir="/tmp/"
 Entering Link 1 = /public/home/client10/Gaussian/g16/l1.exe PID=     45935.
  
 Copyright (c) 1988-2019, Gaussian, Inc.  All Rights Reserved.
  
 This is part of the Gaussian(R) 16 program.  It is based on
 the Gaussian(R) 09 system (copyright 2009, Gaussian, Inc.),
 the Gaussian(R) 03 system (copyright 2003, Gaussian, Inc.),
 the Gaussian(R) 98 system (copyright 1998, Gaussian, Inc.),
 the Gaussian(R) 94 system (copyright 1995, Gaussian, Inc.),
 the Gaussian 92(TM) system (copyright 1992, Gaussian, Inc.),
 the Gaussian 90(TM) system (copyright 1990, Gaussian, Inc.),
 the Gaussian 88(TM) system (copyright 1988, Gaussian, Inc.),
 the Gaussian 86(TM) system (copyright 1986, Carnegie Mellon
 University), and the Gaussian 82(TM) system (copyright 1983,
 Carnegie Mellon University). Gaussian is a federally registered
 trademark of Gaussian, Inc.
  
 This software contains proprietary and confidential information,
 including trade secrets, belonging to Gaussian, Inc.
  
 This software is provided under written license and may be
 used, copied, transmitted, or stored only in accord with that
 written license.
  
 The following legend is applicable only to US Government
 contracts under FAR:
  
                    RESTRICTED RIGHTS LEGEND
  
 Use, reproduction and disclosure by the US Government is
 subject to restrictions as set forth in subparagraphs (a)
 and (c) of the Commercial Computer Software - Restricted
 Rights clause in FAR 52.227-19.
  
 Gaussian, Inc.
 340 Quinnipiac St., Bldg. 40, Wallingford CT 06492
  
  
 ---------------------------------------------------------------
 Warning -- This program may not be used in any manner that
 competes with the business of Gaussian, Inc. or will provide
 assistance to any competitor of Gaussian, Inc.  The licensee
 of this program is prohibited from giving any competitor of
 Gaussian, Inc. access to this program.  By using this program,
 the user acknowledges that Gaussian, Inc. is engaged in the
 business of creating and licensing software in the field of
 computational chemistry and represents and warrants to the
 licensee that it is not a competitor of Gaussian, Inc. and that
 it will not use this program in any manner prohibited above.
 ---------------------------------------------------------------
  

 Cite this work as:
 Gaussian 16, Revision C.01,
 M. J. Frisch, G. W. Trucks, H. B. Schlegel, G. E. Scuseria, 
 M. A. Robb, J. R. Cheeseman, G. Scalmani, V. Barone, 
 G. A. Petersson, H. Nakatsuji, X. Li, M. Caricato, A. V. Marenich, 
 J. Bloino, B. G. Janesko, R. Gomperts, B. Mennucci, H. P. Hratchian, 
 J. V. Ortiz, A. F. Izmaylov, J. L. Sonnenberg, D. Williams-Young, 
 F. Ding, F. Lipparini, F. Egidi, J. Goings, B. Peng, A. Petrone, 
 T. Henderson, D. Ranasinghe, V. G. Zakrzewski, J. Gao, N. Rega, 
 G. Zheng, W. Liang, M. Hada, M. Ehara, K. Toyota, R. Fukuda, 
 J. Hasegawa, M. Ishida, T. Nakajima, Y. Honda, O. Kitao, H. Nakai, 
 T. Vreven, K. Throssell, J. A. Montgomery, Jr., J. E. Peralta, 
 F. Ogliaro, M. J. Bearpark, J. J. Heyd, E. N. Brothers, K. N. Kudin, 
 V. N. Staroverov, T. A. Keith, R. Kobayashi, J. Normand, 
 K. Raghavachari, A. P. Rendell, J. C. Burant, S. S. Iyengar, 
 J. Tomasi, M. Cossi, J. M. Millam, M. Klene, C. Adamo, R. Cammi, 
 J. W. Ochterski, R. L. Martin, K. Morokuma, O. Farkas, 
 J. B. Foresman, and D. J. Fox, Gaussian, Inc., Wallingford CT, 2019.
 
 ******************************************
 Gaussian 16:  ES64L-G16RevC.01  3-Jul-2019
                26-Mar-2024 
 ******************************************
 %chk=0-2-Ligand-M.chk
 %mem=16GB
 %nprocshared=16
 Will use up to   16 processors via shared memory.
 -----------------------------
 # opt pbe1pbe/genecp em=gd3bj
 -----------------------------
 1/18=20,19=15,26=3,38=1/1,3;
 2/9=110,12=2,17=6,18=5,40=1/2;
 3/5=7,11=2,16=1,17=8,25=1,30=1,71=1,74=-13,124=41/1,2,3;
 4//1;
 5/5=2,38=5/2;
 6/7=2,8=2,9=2,10=2,28=1/1;
 7//1,2,3,16;
 1/18=20,19=15,26=3/3(2);
 2/9=110/2;
 99//99;
 2/9=110/2;
 3/5=7,6=1,11=2,16=1,17=8,25=1,30=1,71=1,74=-13,82=7,124=41/1,2,3;
 4/5=5,16=3,69=1/1;
 5/5=2,38=5/2;
 7//1,2,3,16;
 1/18=20,19=15,26=3/3(-5);
 2/9=110/2;
 6/7=2,8=2,9=2,10=2,19=2,28=1/1;
 99/9=1/99;
 ----------------
 0-2-Ligand-M.xyz
 ----------------
 Symbolic Z-matrix:
 Charge =  0 Multiplicity = 1
 O                    -1.86767  -3.47186   2.05847 
 C                    -1.11782  -2.69876   1.67169 
 Rh                    0.041    -1.41643   1.04641 
 P                     1.71362  -0.08653   0.35777 
 N                     2.73052  -0.79097  -0.80497 
 C                     3.93104  -0.34581  -1.30752 
 C                     4.32635  -1.18861  -2.29918 
 C                     3.33282  -2.19115  -2.42628 
 C                     2.37261  -1.92156  -1.50356 
 N                     2.77068   0.36579   1.61054 
 C                     3.72047   1.36158   1.64872 
 C                     4.29091   1.37349   2.8831 
 C                     3.67332   0.35256   3.64654 
 C                     2.74938  -0.24171   2.84673 
 N                     1.55908   1.46242  -0.36632 
 C                     1.49926   1.73357  -1.71236 
 C                     1.09242   3.0206   -1.88338 
 C                     0.86304   3.56365  -0.59723 
 C                     1.13929   2.5857    0.30755 
 P                    -1.57537   0.1028    0.73985 
 N                    -1.5374    1.40339   1.82924 
 C                    -2.38119   2.47549   1.9986 
 C                    -1.97533   3.18005   3.08914 
 C                    -0.84913   2.51341   3.63329 
 C                    -0.61099   1.4295    2.84894 
 N                    -1.54715   0.80158  -0.81351 
 C                    -1.08236   0.01985  -1.85046 
 C                    -1.32725   0.65627  -3.02649 
 C                    -1.96265   1.88117  -2.70922 
 C                    -2.09257   1.93862  -1.35555 
 N                    -3.25128  -0.23061   0.84083 
 C                    -3.88044  -0.50227   2.03446 
 C                    -5.0967   -1.05221   1.77401 
 C                    -5.21555  -1.15877   0.36679 
 C                    -4.06688  -0.67155  -0.17556 
 H                     1.11974  -2.47754   1.25883 
 H                     4.41263   0.52625  -0.91184 
 H                     5.22799  -1.11332  -2.87477 
 H                     3.34279  -3.00841  -3.1198 
 H                     1.46225  -2.44401  -1.25409 
 H                     3.89892   1.99942   0.80516 
 H                     5.06689   2.03405   3.21675 
 H                     3.89409   0.10084   4.66477 
 H                     2.0726   -1.06018   3.0359 
 H                     1.76958   0.99428  -2.44072 
 H                     0.97306   3.52927  -2.81908 
 H                     0.53908   4.56118  -0.37474 
 H                     1.11046   2.60805   1.38044 
 H                    -3.21799   2.63521   1.34745 
 H                    -2.4268    4.0739    3.47226 
 H                    -0.29655   2.80708   4.50368 
 H                     0.12441   0.64163   2.93284 
 H                    -0.62968  -0.94087  -1.64253 
 H                    -1.08079   0.30413  -4.00849 
 H                    -2.27915   2.62929  -3.40878 
 H                    -2.49714   2.71389  -0.73742 
 H                    -3.41005  -0.25994   2.96942 
 H                    -5.83073  -1.34717   2.4975 
 H                    -6.05762  -1.54757  -0.17105 
 H                    -3.77164  -0.57768  -1.20319 
 

 GradGradGradGradGradGradGradGradGradGradGradGradGradGradGradGradGradGrad
 Berny optimization.
 Initialization pass.
                           ----------------------------
                           !    Initial Parameters    !
                           ! (Angstroms and Degrees)  !
 --------------------------                            --------------------------
 ! Name  Definition              Value          Derivative Info.                !
 --------------------------------------------------------------------------------
 ! R1    R(1,2)                  1.1444         estimate D2E/DX2                !
 ! R2    R(2,3)                  1.838          estimate D2E/DX2                !
 ! R3    R(3,4)                  2.2451         estimate D2E/DX2                !
 ! R4    R(3,20)                 2.2394         estimate D2E/DX2                !
 ! R5    R(3,36)                 1.528          estimate D2E/DX2                !
 ! R6    R(4,5)                  1.6977         estimate D2E/DX2                !
 ! R7    R(4,10)                 1.7004         estimate D2E/DX2                !
 ! R8    R(4,15)                 1.7168         estimate D2E/DX2                !
 ! R9    R(5,6)                  1.3755         estimate D2E/DX2                !
 ! R10   R(5,9)                  1.3764         estimate D2E/DX2                !
 ! R11   R(6,7)                  1.3601         estimate D2E/DX2                !
 ! R12   R(6,37)                 1.0719         estimate D2E/DX2                !
 ! R13   R(7,8)                  1.4172         estimate D2E/DX2                !
 ! R14   R(7,38)                 1.0723         estimate D2E/DX2                !
 ! R15   R(8,9)                  1.3587         estimate D2E/DX2                !
 ! R16   R(8,39)                 1.0719         estimate D2E/DX2                !
 ! R17   R(9,40)                 1.0789         estimate D2E/DX2                !
 ! R18   R(10,11)                1.3766         estimate D2E/DX2                !
 ! R19   R(10,14)                1.3776         estimate D2E/DX2                !
 ! R20   R(11,12)                1.3599         estimate D2E/DX2                !
 ! R21   R(11,41)                1.0725         estimate D2E/DX2                !
 ! R22   R(12,13)                1.4165         estimate D2E/DX2                !
 ! R23   R(12,42)                1.0723         estimate D2E/DX2                !
 ! R24   R(13,14)                1.3589         estimate D2E/DX2                !
 ! R25   R(13,43)                1.0719         estimate D2E/DX2                !
 ! R26   R(14,44)                1.0788         estimate D2E/DX2                !
 ! R27   R(15,16)                1.3744         estimate D2E/DX2                !
 ! R28   R(15,19)                1.3755         estimate D2E/DX2                !
 ! R29   R(16,17)                1.3606         estimate D2E/DX2                !
 ! R30   R(16,45)                1.0724         estimate D2E/DX2                !
 ! R31   R(17,18)                1.4148         estimate D2E/DX2                !
 ! R32   R(17,46)                1.0717         estimate D2E/DX2                !
 ! R33   R(18,19)                1.3606         estimate D2E/DX2                !
 ! R34   R(18,47)                1.0722         estimate D2E/DX2                !
 ! R35   R(19,48)                1.0735         estimate D2E/DX2                !
 ! R36   R(20,21)                1.697          estimate D2E/DX2                !
 ! R37   R(20,26)                1.7035         estimate D2E/DX2                !
 ! R38   R(20,31)                1.7117         estimate D2E/DX2                !
 ! R39   R(21,22)                1.3748         estimate D2E/DX2                !
 ! R40   R(21,25)                1.3779         estimate D2E/DX2                !
 ! R41   R(22,23)                1.3603         estimate D2E/DX2                !
 ! R42   R(22,49)                1.0723         estimate D2E/DX2                !
 ! R43   R(23,24)                1.4173         estimate D2E/DX2                !
 ! R44   R(23,50)                1.0722         estimate D2E/DX2                !
 ! R45   R(24,25)                1.359          estimate D2E/DX2                !
 ! R46   R(24,51)                1.072          estimate D2E/DX2                !
 ! R47   R(25,52)                1.081          estimate D2E/DX2                !
 ! R48   R(26,27)                1.3793         estimate D2E/DX2                !
 ! R49   R(26,30)                1.3726         estimate D2E/DX2                !
 ! R50   R(27,28)                1.3594         estimate D2E/DX2                !
 ! R51   R(27,53)                1.0822         estimate D2E/DX2                !
 ! R52   R(28,29)                1.4159         estimate D2E/DX2                !
 ! R53   R(28,54)                1.0719         estimate D2E/DX2                !
 ! R54   R(29,30)                1.3611         estimate D2E/DX2                !
 ! R55   R(29,55)                1.072          estimate D2E/DX2                !
 ! R56   R(30,56)                1.0709         estimate D2E/DX2                !
 ! R57   R(31,32)                1.3764         estimate D2E/DX2                !
 ! R58   R(31,35)                1.3757         estimate D2E/DX2                !
 ! R59   R(32,33)                1.36           estimate D2E/DX2                !
 ! R60   R(32,57)                1.0743         estimate D2E/DX2                !
 ! R61   R(33,34)                1.4162         estimate D2E/DX2                !
 ! R62   R(33,58)                1.072          estimate D2E/DX2                !
 ! R63   R(34,35)                1.3605         estimate D2E/DX2                !
 ! R64   R(34,59)                1.0722         estimate D2E/DX2                !
 ! R65   R(35,60)                1.0733         estimate D2E/DX2                !
 ! A1    A(2,3,20)              93.7159         estimate D2E/DX2                !
 ! A2    A(2,3,36)              85.0274         estimate D2E/DX2                !
 ! A3    A(4,3,20)              95.3873         estimate D2E/DX2                !
 ! A4    A(4,3,36)              85.8732         estimate D2E/DX2                !
 ! A5    A(3,4,5)              114.238          estimate D2E/DX2                !
 ! A6    A(3,4,10)             113.2487         estimate D2E/DX2                !
 ! A7    A(3,4,15)             126.637          estimate D2E/DX2                !
 ! A8    A(5,4,10)             104.0403         estimate D2E/DX2                !
 ! A9    A(5,4,15)              98.0142         estimate D2E/DX2                !
 ! A10   A(10,4,15)             97.2784         estimate D2E/DX2                !
 ! A11   A(4,5,6)              129.6966         estimate D2E/DX2                !
 ! A12   A(4,5,9)              122.1881         estimate D2E/DX2                !
 ! A13   A(6,5,9)              107.9008         estimate D2E/DX2                !
 ! A14   A(5,6,7)              108.633          estimate D2E/DX2                !
 ! A15   A(5,6,37)             121.3701         estimate D2E/DX2                !
 ! A16   A(7,6,37)             129.9915         estimate D2E/DX2                !
 ! A17   A(6,7,8)              107.4567         estimate D2E/DX2                !
 ! A18   A(6,7,38)             126.314          estimate D2E/DX2                !
 ! A19   A(8,7,38)             126.2278         estimate D2E/DX2                !
 ! A20   A(7,8,9)              107.1084         estimate D2E/DX2                !
 ! A21   A(7,8,39)             126.2191         estimate D2E/DX2                !
 ! A22   A(9,8,39)             126.6723         estimate D2E/DX2                !
 ! A23   A(5,9,8)              108.8993         estimate D2E/DX2                !
 ! A24   A(5,9,40)             119.99           estimate D2E/DX2                !
 ! A25   A(8,9,40)             131.0928         estimate D2E/DX2                !
 ! A26   A(4,10,11)            129.922          estimate D2E/DX2                !
 ! A27   A(4,10,14)            122.2905         estimate D2E/DX2                !
 ! A28   A(11,10,14)           107.7446         estimate D2E/DX2                !
 ! A29   A(10,11,12)           108.7186         estimate D2E/DX2                !
 ! A30   A(10,11,41)           121.5447         estimate D2E/DX2                !
 ! A31   A(12,11,41)           129.7135         estimate D2E/DX2                !
 ! A32   A(11,12,13)           107.4587         estimate D2E/DX2                !
 ! A33   A(11,12,42)           126.2567         estimate D2E/DX2                !
 ! A34   A(13,12,42)           126.2845         estimate D2E/DX2                !
 ! A35   A(12,13,14)           107.1225         estimate D2E/DX2                !
 ! A36   A(12,13,43)           126.2591         estimate D2E/DX2                !
 ! A37   A(14,13,43)           126.6182         estimate D2E/DX2                !
 ! A38   A(10,14,13)           108.9541         estimate D2E/DX2                !
 ! A39   A(10,14,44)           120.11           estimate D2E/DX2                !
 ! A40   A(13,14,44)           130.9319         estimate D2E/DX2                !
 ! A41   A(4,15,16)            126.5117         estimate D2E/DX2                !
 ! A42   A(4,15,19)            123.8914         estimate D2E/DX2                !
 ! A43   A(16,15,19)           107.7824         estimate D2E/DX2                !
 ! A44   A(15,16,17)           108.8289         estimate D2E/DX2                !
 ! A45   A(15,16,45)           121.2103         estimate D2E/DX2                !
 ! A46   A(17,16,45)           129.9474         estimate D2E/DX2                !
 ! A47   A(16,17,18)           107.2952         estimate D2E/DX2                !
 ! A48   A(16,17,46)           126.3013         estimate D2E/DX2                !
 ! A49   A(18,17,46)           126.4028         estimate D2E/DX2                !
 ! A50   A(17,18,19)           107.1996         estimate D2E/DX2                !
 ! A51   A(17,18,47)           126.4949         estimate D2E/DX2                !
 ! A52   A(19,18,47)           126.3041         estimate D2E/DX2                !
 ! A53   A(15,19,18)           108.8523         estimate D2E/DX2                !
 ! A54   A(15,19,48)           120.9847         estimate D2E/DX2                !
 ! A55   A(18,19,48)           130.1038         estimate D2E/DX2                !
 ! A56   A(3,20,21)            114.5774         estimate D2E/DX2                !
 ! A57   A(3,20,26)            113.0265         estimate D2E/DX2                !
 ! A58   A(3,20,31)            124.5049         estimate D2E/DX2                !
 ! A59   A(21,20,26)           105.7012         estimate D2E/DX2                !
 ! A60   A(21,20,31)            97.6615         estimate D2E/DX2                !
 ! A61   A(26,20,31)            98.6215         estimate D2E/DX2                !
 ! A62   A(20,21,22)           131.5305         estimate D2E/DX2                !
 ! A63   A(20,21,25)           120.3068         estimate D2E/DX2                !
 ! A64   A(22,21,25)           107.8603         estimate D2E/DX2                !
 ! A65   A(21,22,23)           108.6355         estimate D2E/DX2                !
 ! A66   A(21,22,49)           121.3546         estimate D2E/DX2                !
 ! A67   A(23,22,49)           129.9811         estimate D2E/DX2                !
 ! A68   A(22,23,24)           107.5329         estimate D2E/DX2                !
 ! A69   A(22,23,50)           126.3441         estimate D2E/DX2                !
 ! A70   A(24,23,50)           126.1221         estimate D2E/DX2                !
 ! A71   A(23,24,25)           107.0257         estimate D2E/DX2                !
 ! A72   A(23,24,51)           126.332          estimate D2E/DX2                !
 ! A73   A(25,24,51)           126.6407         estimate D2E/DX2                !
 ! A74   A(21,25,24)           108.9302         estimate D2E/DX2                !
 ! A75   A(21,25,52)           120.0658         estimate D2E/DX2                !
 ! A76   A(24,25,52)           130.9748         estimate D2E/DX2                !
 ! A77   A(20,26,27)           117.2989         estimate D2E/DX2                !
 ! A78   A(20,26,30)           133.8904         estimate D2E/DX2                !
 ! A79   A(27,26,30)           107.8488         estimate D2E/DX2                !
 ! A80   A(26,27,28)           108.9259         estimate D2E/DX2                !
 ! A81   A(26,27,53)           119.9773         estimate D2E/DX2                !
 ! A82   A(28,27,53)           131.0849         estimate D2E/DX2                !
 ! A83   A(27,28,29)           106.9777         estimate D2E/DX2                !
 ! A84   A(27,28,54)           126.6766         estimate D2E/DX2                !
 ! A85   A(29,28,54)           126.3442         estimate D2E/DX2                !
 ! A86   A(28,29,30)           107.5894         estimate D2E/DX2                !
 ! A87   A(28,29,55)           126.1561         estimate D2E/DX2                !
 ! A88   A(30,29,55)           126.2538         estimate D2E/DX2                !
 ! A89   A(26,30,29)           108.6534         estimate D2E/DX2                !
 ! A90   A(26,30,56)           121.4578         estimate D2E/DX2                !
 ! A91   A(29,30,56)           129.8421         estimate D2E/DX2                !
 ! A92   A(20,31,32)           122.4898         estimate D2E/DX2                !
 ! A93   A(20,31,35)           126.8188         estimate D2E/DX2                !
 ! A94   A(32,31,35)           107.8449         estimate D2E/DX2                !
 ! A95   A(31,32,33)           108.8163         estimate D2E/DX2                !
 ! A96   A(31,32,57)           120.6684         estimate D2E/DX2                !
 ! A97   A(33,32,57)           130.5013         estimate D2E/DX2                !
 ! A98   A(32,33,34)           107.2034         estimate D2E/DX2                !
 ! A99   A(32,33,58)           126.4671         estimate D2E/DX2                !
 ! A100  A(34,33,58)           126.3291         estimate D2E/DX2                !
 ! A101  A(33,34,35)           107.3558         estimate D2E/DX2                !
 ! A102  A(33,34,59)           126.2737         estimate D2E/DX2                !
 ! A103  A(35,34,59)           126.3699         estimate D2E/DX2                !
 ! A104  A(31,35,34)           108.7117         estimate D2E/DX2                !
 ! A105  A(31,35,60)           121.0805         estimate D2E/DX2                !
 ! A106  A(34,35,60)           130.1831         estimate D2E/DX2                !
 ! A107  L(1,2,3,31,-1)        178.1102         estimate D2E/DX2                !
 ! A108  L(2,3,4,36,-1)        170.9006         estimate D2E/DX2                !
 ! A109  L(20,3,36,4,-1)       181.2605         estimate D2E/DX2                !
 ! A110  L(1,2,3,31,-2)        179.7457         estimate D2E/DX2                !
 ! A111  L(2,3,4,36,-2)        180.7241         estimate D2E/DX2                !
 ! A112  L(20,3,36,4,-2)       180.3009         estimate D2E/DX2                !
 ! D1    D(20,3,4,5)          -129.8356         estimate D2E/DX2                !
 ! D2    D(20,3,4,10)          111.2837         estimate D2E/DX2                !
 ! D3    D(20,3,4,15)           -8.1438         estimate D2E/DX2                !
 ! D4    D(36,3,4,5)            49.8635         estimate D2E/DX2                !
 ! D5    D(36,3,4,10)          -69.0172         estimate D2E/DX2                !
 ! D6    D(36,3,4,15)          171.5553         estimate D2E/DX2                !
 ! D7    D(2,3,20,21)          109.5364         estimate D2E/DX2                !
 ! D8    D(2,3,20,26)         -129.2834         estimate D2E/DX2                !
 ! D9    D(2,3,20,31)           -9.9548         estimate D2E/DX2                !
 ! D10   D(4,3,20,21)          -69.7884         estimate D2E/DX2                !
 ! D11   D(4,3,20,26)           51.3917         estimate D2E/DX2                !
 ! D12   D(4,3,20,31)          170.7204         estimate D2E/DX2                !
 ! D13   D(3,4,5,6)           -170.4068         estimate D2E/DX2                !
 ! D14   D(3,4,5,9)             15.5876         estimate D2E/DX2                !
 ! D15   D(10,4,5,6)           -46.4338         estimate D2E/DX2                !
 ! D16   D(10,4,5,9)           139.5606         estimate D2E/DX2                !
 ! D17   D(15,4,5,6)            53.1848         estimate D2E/DX2                !
 ! D18   D(15,4,5,9)          -120.8208         estimate D2E/DX2                !
 ! D19   D(3,4,10,11)         -165.0081         estimate D2E/DX2                !
 ! D20   D(3,4,10,14)           12.3048         estimate D2E/DX2                !
 ! D21   D(5,4,10,11)           70.3809         estimate D2E/DX2                !
 ! D22   D(5,4,10,14)         -112.3062         estimate D2E/DX2                !
 ! D23   D(15,4,10,11)         -29.8036         estimate D2E/DX2                !
 ! D24   D(15,4,10,14)         147.5093         estimate D2E/DX2                !
 ! D25   D(3,4,15,16)          -92.6476         estimate D2E/DX2                !
 ! D26   D(3,4,15,19)           70.106          estimate D2E/DX2                !
 ! D27   D(5,4,15,16)           35.7674         estimate D2E/DX2                !
 ! D28   D(5,4,15,19)         -161.479          estimate D2E/DX2                !
 ! D29   D(10,4,15,16)         141.1325         estimate D2E/DX2                !
 ! D30   D(10,4,15,19)         -56.1138         estimate D2E/DX2                !
 ! D31   D(4,5,6,7)           -175.1147         estimate D2E/DX2                !
 ! D32   D(4,5,6,37)             5.6478         estimate D2E/DX2                !
 ! D33   D(9,5,6,7)             -0.4438         estimate D2E/DX2                !
 ! D34   D(9,5,6,37)          -179.6813         estimate D2E/DX2                !
 ! D35   D(4,5,9,8)            175.4871         estimate D2E/DX2                !
 ! D36   D(4,5,9,40)            -5.8869         estimate D2E/DX2                !
 ! D37   D(6,5,9,8)              0.331          estimate D2E/DX2                !
 ! D38   D(6,5,9,40)           178.9569         estimate D2E/DX2                !
 ! D39   D(5,6,7,8)              0.3824         estimate D2E/DX2                !
 ! D40   D(5,6,7,38)          -179.1936         estimate D2E/DX2                !
 ! D41   D(37,6,7,8)           179.5326         estimate D2E/DX2                !
 ! D42   D(37,6,7,38)           -0.0434         estimate D2E/DX2                !
 ! D43   D(6,7,8,9)             -0.1775         estimate D2E/DX2                !
 ! D44   D(6,7,8,39)           179.9828         estimate D2E/DX2                !
 ! D45   D(38,7,8,9)           179.399          estimate D2E/DX2                !
 ! D46   D(38,7,8,39)           -0.4408         estimate D2E/DX2                !
 ! D47   D(7,8,9,5)             -0.0955         estimate D2E/DX2                !
 ! D48   D(7,8,9,40)          -178.5163         estimate D2E/DX2                !
 ! D49   D(39,8,9,5)           179.7433         estimate D2E/DX2                !
 ! D50   D(39,8,9,40)            1.3225         estimate D2E/DX2                !
 ! D51   D(4,10,11,12)         177.9939         estimate D2E/DX2                !
 ! D52   D(4,10,11,41)          -0.414          estimate D2E/DX2                !
 ! D53   D(14,10,11,12)          0.3787         estimate D2E/DX2                !
 ! D54   D(14,10,11,41)       -178.0292         estimate D2E/DX2                !
 ! D55   D(4,10,14,13)        -178.232          estimate D2E/DX2                !
 ! D56   D(4,10,14,44)           2.4258         estimate D2E/DX2                !
 ! D57   D(11,10,14,13)         -0.3954         estimate D2E/DX2                !
 ! D58   D(11,10,14,44)       -179.7377         estimate D2E/DX2                !
 ! D59   D(10,11,12,13)         -0.2193         estimate D2E/DX2                !
 ! D60   D(10,11,12,42)        179.7139         estimate D2E/DX2                !
 ! D61   D(41,11,12,13)        178.0168         estimate D2E/DX2                !
 ! D62   D(41,11,12,42)         -2.05           estimate D2E/DX2                !
 ! D63   D(11,12,13,14)         -0.0242         estimate D2E/DX2                !
 ! D64   D(11,12,13,43)       -179.8647         estimate D2E/DX2                !
 ! D65   D(42,12,13,14)       -179.9573         estimate D2E/DX2                !
 ! D66   D(42,12,13,43)          0.2021         estimate D2E/DX2                !
 ! D67   D(12,13,14,10)          0.2587         estimate D2E/DX2                !
 ! D68   D(12,13,14,44)        179.5055         estimate D2E/DX2                !
 ! D69   D(43,13,14,10)       -179.9016         estimate D2E/DX2                !
 ! D70   D(43,13,14,44)         -0.6547         estimate D2E/DX2                !
 ! D71   D(4,15,16,17)         167.0406         estimate D2E/DX2                !
 ! D72   D(4,15,16,45)         -14.1668         estimate D2E/DX2                !
 ! D73   D(19,15,16,17)          2.019          estimate D2E/DX2                !
 ! D74   D(19,15,16,45)       -179.1883         estimate D2E/DX2                !
 ! D75   D(4,15,19,18)        -167.5266         estimate D2E/DX2                !
 ! D76   D(4,15,19,48)          15.0007         estimate D2E/DX2                !
 ! D77   D(16,15,19,18)         -2.0188         estimate D2E/DX2                !
 ! D78   D(16,15,19,48)       -179.4915         estimate D2E/DX2                !
 ! D79   D(15,16,17,18)         -1.2475         estimate D2E/DX2                !
 ! D80   D(15,16,17,46)        178.4657         estimate D2E/DX2                !
 ! D81   D(45,16,17,18)       -179.9006         estimate D2E/DX2                !
 ! D82   D(45,16,17,46)         -0.1873         estimate D2E/DX2                !
 ! D83   D(16,17,18,19)          0.0018         estimate D2E/DX2                !
 ! D84   D(16,17,18,47)        179.5921         estimate D2E/DX2                !
 ! D85   D(46,17,18,19)       -179.7111         estimate D2E/DX2                !
 ! D86   D(46,17,18,47)         -0.1208         estimate D2E/DX2                !
 ! D87   D(17,18,19,15)          1.2437         estimate D2E/DX2                !
 ! D88   D(17,18,19,48)        178.4108         estimate D2E/DX2                !
 ! D89   D(47,18,19,15)       -178.3476         estimate D2E/DX2                !
 ! D90   D(47,18,19,48)         -1.1805         estimate D2E/DX2                !
 ! D91   D(3,20,21,22)        -176.3989         estimate D2E/DX2                !
 ! D92   D(3,20,21,25)          -3.5447         estimate D2E/DX2                !
 ! D93   D(26,20,21,22)         58.4759         estimate D2E/DX2                !
 ! D94   D(26,20,21,25)       -128.6699         estimate D2E/DX2                !
 ! D95   D(31,20,21,22)        -42.765          estimate D2E/DX2                !
 ! D96   D(31,20,21,25)        130.0892         estimate D2E/DX2                !
 ! D97   D(3,20,26,27)          30.5608         estimate D2E/DX2                !
 ! D98   D(3,20,26,30)        -162.2478         estimate D2E/DX2                !
 ! D99   D(21,20,26,27)        156.6415         estimate D2E/DX2                !
 ! D100  D(21,20,26,30)        -36.1671         estimate D2E/DX2                !
 ! D101  D(31,20,26,27)       -102.8319         estimate D2E/DX2                !
 ! D102  D(31,20,26,30)         64.3595         estimate D2E/DX2                !
 ! D103  D(3,20,31,32)          70.9424         estimate D2E/DX2                !
 ! D104  D(3,20,31,35)         -87.5788         estimate D2E/DX2                !
 ! D105  D(21,20,31,32)        -56.0514         estimate D2E/DX2                !
 ! D106  D(21,20,31,35)        145.4274         estimate D2E/DX2                !
 ! D107  D(26,20,31,32)       -163.3034         estimate D2E/DX2                !
 ! D108  D(26,20,31,35)         38.1754         estimate D2E/DX2                !
 ! D109  D(20,21,22,23)        174.7913         estimate D2E/DX2                !
 ! D110  D(20,21,22,49)         -3.4388         estimate D2E/DX2                !
 ! D111  D(25,21,22,23)          1.2699         estimate D2E/DX2                !
 ! D112  D(25,21,22,49)       -176.9602         estimate D2E/DX2                !
 ! D113  D(20,21,25,24)       -175.5496         estimate D2E/DX2                !
 ! D114  D(20,21,25,52)          2.6932         estimate D2E/DX2                !
 ! D115  D(22,21,25,24)         -1.1642         estimate D2E/DX2                !
 ! D116  D(22,21,25,52)        177.0786         estimate D2E/DX2                !
 ! D117  D(21,22,23,24)         -0.8899         estimate D2E/DX2                !
 ! D118  D(21,22,23,50)        179.4198         estimate D2E/DX2                !
 ! D119  D(49,22,23,24)        177.1376         estimate D2E/DX2                !
 ! D120  D(49,22,23,50)         -2.5528         estimate D2E/DX2                !
 ! D121  D(22,23,24,25)          0.1718         estimate D2E/DX2                !
 ! D122  D(22,23,24,51)       -179.3957         estimate D2E/DX2                !
 ! D123  D(50,23,24,25)        179.863          estimate D2E/DX2                !
 ! D124  D(50,23,24,51)          0.2955         estimate D2E/DX2                !
 ! D125  D(23,24,25,21)          0.6115         estimate D2E/DX2                !
 ! D126  D(23,24,25,52)       -177.3741         estimate D2E/DX2                !
 ! D127  D(51,24,25,21)       -179.8227         estimate D2E/DX2                !
 ! D128  D(51,24,25,52)          2.1916         estimate D2E/DX2                !
 ! D129  D(20,26,27,28)        170.5278         estimate D2E/DX2                !
 ! D130  D(20,26,27,53)         -8.3523         estimate D2E/DX2                !
 ! D131  D(30,26,27,28)          0.1905         estimate D2E/DX2                !
 ! D132  D(30,26,27,53)       -178.6896         estimate D2E/DX2                !
 ! D133  D(20,26,30,29)       -168.6242         estimate D2E/DX2                !
 ! D134  D(20,26,30,56)         13.6318         estimate D2E/DX2                !
 ! D135  D(27,26,30,29)         -0.5688         estimate D2E/DX2                !
 ! D136  D(27,26,30,56)       -178.3127         estimate D2E/DX2                !
 ! D137  D(26,27,28,29)          0.244          estimate D2E/DX2                !
 ! D138  D(26,27,28,54)        179.8175         estimate D2E/DX2                !
 ! D139  D(53,27,28,29)        178.9569         estimate D2E/DX2                !
 ! D140  D(53,27,28,54)         -1.4696         estimate D2E/DX2                !
 ! D141  D(27,28,29,30)         -0.5917         estimate D2E/DX2                !
 ! D142  D(27,28,29,55)        179.127          estimate D2E/DX2                !
 ! D143  D(54,28,29,30)        179.833          estimate D2E/DX2                !
 ! D144  D(54,28,29,55)         -0.4483         estimate D2E/DX2                !
 ! D145  D(28,29,30,26)          0.7147         estimate D2E/DX2                !
 ! D146  D(28,29,30,56)        178.2082         estimate D2E/DX2                !
 ! D147  D(55,29,30,26)       -179.0036         estimate D2E/DX2                !
 ! D148  D(55,29,30,56)         -1.5102         estimate D2E/DX2                !
 ! D149  D(20,31,32,33)       -164.621          estimate D2E/DX2                !
 ! D150  D(20,31,32,57)         16.6002         estimate D2E/DX2                !
 ! D151  D(35,31,32,33)         -2.5559         estimate D2E/DX2                !
 ! D152  D(35,31,32,57)        178.6653         estimate D2E/DX2                !
 ! D153  D(20,31,35,34)        163.6721         estimate D2E/DX2                !
 ! D154  D(20,31,35,60)        -17.9608         estimate D2E/DX2                !
 ! D155  D(32,31,35,34)          2.6048         estimate D2E/DX2                !
 ! D156  D(32,31,35,60)       -179.0281         estimate D2E/DX2                !
 ! D157  D(31,32,33,34)          1.5254         estimate D2E/DX2                !
 ! D158  D(31,32,33,58)       -178.2767         estimate D2E/DX2                !
 ! D159  D(57,32,33,34)       -179.856          estimate D2E/DX2                !
 ! D160  D(57,32,33,58)          0.3419         estimate D2E/DX2                !
 ! D161  D(32,33,34,35)          0.0812         estimate D2E/DX2                !
 ! D162  D(32,33,34,59)       -179.6601         estimate D2E/DX2                !
 ! D163  D(58,33,34,35)        179.8837         estimate D2E/DX2                !
 ! D164  D(58,33,34,59)          0.1424         estimate D2E/DX2                !
 ! D165  D(33,34,35,31)         -1.6567         estimate D2E/DX2                !
 ! D166  D(33,34,35,60)       -179.8262         estimate D2E/DX2                !
 ! D167  D(59,34,35,31)        178.0843         estimate D2E/DX2                !
 ! D168  D(59,34,35,60)         -0.0851         estimate D2E/DX2                !
 --------------------------------------------------------------------------------
 Trust Radius=3.00D-01 FncErr=1.00D-07 GrdErr=1.00D-06 EigMax=2.50D+02 EigMin=1.00D-04
 Number of steps in this run=    355 maximum allowed number of steps=    360.
 GradGradGradGradGradGradGradGradGradGradGradGradGradGradGradGradGradGrad

 Stoichiometry    C25H25N6OP2Rh
 Framework group  C1[X(C25H25N6OP2Rh)]
 Deg. of freedom   174
 Full point group                 C1      NOp   1
 Largest Abelian subgroup         C1      NOp   1
 Largest concise Abelian subgroup C1      NOp   1
                         Standard orientation:                         
 ---------------------------------------------------------------------
 Center     Atomic      Atomic             Coordinates (Angstroms)
 Number     Number       Type             X           Y           Z
 ---------------------------------------------------------------------
      1          8           0        2.203743    0.608344   -3.720774
      2          6           0        1.381969    0.476260   -2.935404
      3         45           0        0.105298    0.260599   -1.630869
      4         15           0       -1.689937    0.066645   -0.296694
      5          7           0       -2.852846   -1.039855   -0.849500
      6          6           0       -4.128295   -1.276016   -0.391856
      7          6           0       -4.647084   -2.330935   -1.075947
      8          6           0       -3.656942   -2.774899   -1.987462
      9          6           0       -2.574577   -1.969731   -1.825335
     10          7           0       -2.554718    1.519981   -0.119585
     11          6           0       -3.515102    1.869787    0.802615
     12          6           0       -3.889618    3.157225    0.575712
     13          6           0       -3.133739    3.632166   -0.524130
     14          6           0       -2.327000    2.614577   -0.924380
     15          7           0       -1.691965   -0.390700    1.358080
     16          6           0       -1.846921   -1.662817    1.854701
     17          6           0       -1.507552   -1.664206    3.172279
     18          6           0       -1.099054   -0.350584    3.502795
     19          6           0       -1.205629    0.400149    2.373032
     20         15           0        1.612085   -0.009060    0.003630
     21          7           0        1.704978    1.284255    1.098363
     22          6           0        2.534208    1.512925    2.170813
     23          6           0        2.280680    2.757112    2.658775
     24          6           0        1.270481    3.335264    1.850037
     25          6           0        0.945526    2.417160    0.902270
     26          7           0        1.326324   -1.395555    0.951254
     27          6           0        0.730244   -2.473763    0.331130
     28          6           0        0.773873   -3.543639    1.168684
     29          6           0        1.415633   -3.113819    2.355352
     30          6           0        1.749923   -1.804657    2.191152
     31          7           0        3.292378   -0.213917   -0.250687
     32          6           0        4.104533    0.808988   -0.684822
     33          6           0        5.281482    0.281599   -1.116349
     34          6           0        5.186093   -1.124631   -0.977999
     35          6           0        3.954578   -1.399794   -0.469451
     36          1           0       -0.897779    0.439941   -2.769478
     37          1           0       -4.567890   -0.668137    0.373788
     38          1           0       -5.628078   -2.746465   -0.953857
     39          1           0       -3.750104   -3.591380   -2.675685
     40          1           0       -1.622377   -1.951070   -2.332190
     41          1           0       -3.838691    1.185780    1.562681
     42          1           0       -4.623563    3.710837    1.127669
     43          1           0       -3.188585    4.611994   -0.955184
     44          1           0       -1.606427    2.557008   -1.725113
     45          1           0       -2.204793   -2.461559    1.234960
     46          1           0       -1.547467   -2.504010    3.836862
     47          1           0       -0.773047   -0.007205    4.464732
     48          1           0       -1.013267    1.444545    2.216054
     49          1           0        3.256430    0.784421    2.482942
     50          1           0        2.760194    3.220178    3.498554
     51          1           0        0.849852    4.314829    1.962671
     52          1           0        0.254181    2.468861    0.072834
     53          1           0        0.342059   -2.372783   -0.673986
     54          1           0        0.389764   -4.525283    0.973979
     55          1           0        1.599911   -3.710716    3.226555
     56          1           0        2.222481   -1.126599    2.872129
     57          1           0        3.776435    1.830449   -0.629126
     58          1           0        6.125787    0.827316   -1.488625
     59          1           0        5.946353   -1.839309   -1.224532
     60          1           0        3.502732   -2.340899   -0.220148
 ---------------------------------------------------------------------
 Rotational constants (GHZ):           0.1490110           0.0962234           0.0947571
 General basis read from cards:  (5D, 7F)
 ======================================================================================================
                                       Pseudopotential Parameters
 ======================================================================================================
  Center     Atomic      Valence      Angular      Power
  Number     Number     Electrons     Momentum     of R      Exponent        Coefficient   SO-Coeffient
 ======================================================================================================
    1          8
                                   No pseudopotential on this center.
    2          6
                                   No pseudopotential on this center.
    3         45           17
                                      G and up 
                                                     2        1.0000000        0.00000000    0.00000000
                                      S - G
                                                     2       11.7200000      225.34775400    0.00000000
                                                     2        5.8200000       32.82318900    0.00000000
                                      P - G
                                                     2       10.4200000      158.70941200    0.00000000
                                                     2        5.4500000       26.44410000    0.00000000
                                      D - G
                                                     2        8.8200000       62.75862600    0.00000000
                                                     2        3.8700000       10.97871900    0.00000000
                                      F - G
                                                     2       12.3100000      -30.09345600    0.00000000
                                                     2        6.1600000       -5.21848200    0.00000000
    4         15
                                   No pseudopotential on this center.
    5          7
                                   No pseudopotential on this center.
    6          6
                                   No pseudopotential on this center.
    7          6
                                   No pseudopotential on this center.
    8          6
                                   No pseudopotential on this center.
    9          6
                                   No pseudopotential on this center.
   10          7
                                   No pseudopotential on this center.
   11          6
                                   No pseudopotential on this center.
   12          6
                                   No pseudopotential on this center.
   13          6
                                   No pseudopotential on this center.
   14          6
                                   No pseudopotential on this center.
   15          7
                                   No pseudopotential on this center.
   16          6
                                   No pseudopotential on this center.
   17          6
                                   No pseudopotential on this center.
   18          6
                                   No pseudopotential on this center.
   19          6
                                   No pseudopotential on this center.
   20         15
                                   No pseudopotential on this center.
   21          7
                                   No pseudopotential on this center.
   22          6
                                   No pseudopotential on this center.
   23          6
                                   No pseudopotential on this center.
   24          6
                                   No pseudopotential on this center.
   25          6
                                   No pseudopotential on this center.
   26          7
                                   No pseudopotential on this center.
   27          6
                                   No pseudopotential on this center.
   28          6
                                   No pseudopotential on this center.
   29          6
                                   No pseudopotential on this center.
   30          6
                                   No pseudopotential on this center.
   31          7
                                   No pseudopotential on this center.
   32          6
                                   No pseudopotential on this center.
   33          6
                                   No pseudopotential on this center.
   34          6
                                   No pseudopotential on this center.
   35          6
                                   No pseudopotential on this center.
   36          1
                                   No pseudopotential on this center.
   37          1
                                   No pseudopotential on this center.
   38          1
                                   No pseudopotential on this center.
   39          1
                                   No pseudopotential on this center.
   40          1
                                   No pseudopotential on this center.
   41          1
                                   No pseudopotential on this center.
   42          1
                                   No pseudopotential on this center.
   43          1
                                   No pseudopotential on this center.
   44          1
                                   No pseudopotential on this center.
   45          1
                                   No pseudopotential on this center.
   46          1
                                   No pseudopotential on this center.
   47          1
                                   No pseudopotential on this center.
   48          1
                                   No pseudopotential on this center.
   49          1
                                   No pseudopotential on this center.
   50          1
                                   No pseudopotential on this center.
   51          1
                                   No pseudopotential on this center.
   52          1
                                   No pseudopotential on this center.
   53          1
                                   No pseudopotential on this center.
   54          1
                                   No pseudopotential on this center.
   55          1
                                   No pseudopotential on this center.
   56          1
                                   No pseudopotential on this center.
   57          1
                                   No pseudopotential on this center.
   58          1
                                   No pseudopotential on this center.
   59          1
                                   No pseudopotential on this center.
   60          1
                                   No pseudopotential on this center.
 ======================================================================================================
 There are   682 symmetry adapted cartesian basis functions of A   symmetry.
 There are   645 symmetry adapted basis functions of A   symmetry.
   645 basis functions,  1240 primitive gaussians,   682 cartesian basis functions
   136 alpha electrons      136 beta electrons
       nuclear repulsion energy      4770.2926119196 Hartrees.
 NAtoms=   60 NActive=   60 NUniq=   60 SFac= 1.00D+00 NAtFMM=   60 NAOKFM=T Big=T
 Integral buffers will be    131072 words long.
 Raffenetti 2 integral format.
 Two-electron integral symmetry is turned on.
 Nuclear repulsion after empirical dispersion term =     4770.1866369986 Hartrees.
 One-electron integrals computed using PRISM.
   1 Symmetry operations used in ECPInt.
 ECPInt:  NShTT=   25878 NPrTT=  142506 LenC2=   21314 LenP2D=   65945.
 LDataN:  DoStor=T MaxTD1= 6 Len=  172
 NBasis=   645 RedAO= T EigKep=  5.18D-04  NBF=   645
 NBsUse=   645 1.00D-06 EigRej= -1.00D+00 NBFU=   645
 Defaulting to unpruned grid for atomic number  45.
 ExpMin= 1.60D-02 ExpMax= 1.94D+04 ExpMxC= 2.91D+03 IAcc=3 IRadAn=         5 AccDes= 0.00D+00
 Harris functional with IExCor= 1009 and IRadAn=       5 diagonalized for initial guess.
 HarFok:  IExCor= 1009 AccDes= 0.00D+00 IRadAn=         5 IDoV= 1 UseB2=F ITyADJ=14
 ICtDFT=  3500011 ScaDFX=  1.000000  1.000000  1.000000  1.000000
 Defaulting to unpruned grid for atomic number  45.
 FoFCou: FMM=F IPFlag=           0 FMFlag=      100000 FMFlg1=        2001
         NFxFlg=           0 DoJE=T BraDBF=F KetDBF=T FulRan=T
         wScrn=  0.000000 ICntrl=       500 IOpCl=  0 I1Cent=   200000004 NGrid=           0
         NMat0=    1 NMatS0=      1 NMatT0=    0 NMatD0=    1 NMtDS0=    0 NMtDT0=    0
 Petite list used in FoFCou.
 Requested convergence on RMS density matrix=1.00D-08 within 128 cycles.
 Requested convergence on MAX density matrix=1.00D-06.
 Requested convergence on             energy=1.00D-06.
 No special actions if energy rises.
 Defaulting to unpruned grid for atomic number  45.
 Defaulting to unpruned grid for atomic number  45.
 Defaulting to unpruned grid for atomic number  45.
 Defaulting to unpruned grid for atomic number  45.
 Defaulting to unpruned grid for atomic number  45.
 Defaulting to unpruned grid for atomic number  45.
 Defaulting to unpruned grid for atomic number  45.
 Defaulting to unpruned grid for atomic number  45.
 Defaulting to unpruned grid for atomic number  45.
 Defaulting to unpruned grid for atomic number  45.
 Defaulting to unpruned grid for atomic number  45.
 Defaulting to unpruned grid for atomic number  45.
 Defaulting to unpruned grid for atomic number  45.
 Defaulting to unpruned grid for atomic number  45.
 Defaulting to unpruned grid for atomic number  45.
 Defaulting to unpruned grid for atomic number  45.
 SCF Done:  E(RPBE1PBE) =  -2162.95657022     A.U. after   16 cycles
            NFock= 16  Conv=0.45D-08     -V/T= 2.0377

 **********************************************************************

            Population analysis using the SCF Density.

 **********************************************************************

 Orbital symmetries:
       Occupied  (A) (A) (A) (A) (A) (A) (A) (A) (A) (A) (A) (A)
                 (A) (A) (A) (A) (A) (A) (A) (A) (A) (A) (A) (A)
                 (A) (A) (A) (A) (A) (A) (A) (A) (A) (A) (A) (A)
                 (A) (A) (A) (A) (A) (A) (A) (A) (A) (A) (A) (A)
                 (A) (A) (A) (A) (A) (A) (A) (A) (A) (A) (A) (A)
                 (A) (A) (A) (A) (A) (A) (A) (A) (A) (A) (A) (A)
                 (A) (A) (A) (A) (A) (A) (A) (A) (A) (A) (A) (A)
                 (A) (A) (A) (A) (A) (A) (A) (A) (A) (A) (A) (A)
                 (A) (A) (A) (A) (A) (A) (A) (A) (A) (A) (A) (A)
                 (A) (A) (A) (A) (A) (A) (A) (A) (A) (A) (A) (A)
                 (A) (A) (A) (A) (A) (A) (A) (A) (A) (A) (A) (A)
                 (A) (A) (A) (A)
       Virtual   (A) (A) (A) (A) (A) (A) (A) (A) (A) (A) (A) (A)
                 (A) (A) (A) (A) (A) (A) (A) (A) (A) (A) (A) (A)
                 (A) (A) (A) (A) (A) (A) (A) (A) (A) (A) (A) (A)
                 (A) (A) (A) (A) (A) (A) (A) (A) (A) (A) (A) (A)
                 (A) (A) (A) (A) (A) (A) (A) (A) (A) (A) (A) (A)
                 (A) (A) (A) (A) (A) (A) (A) (A) (A) (A) (A) (A)
                 (A) (A) (A) (A) (A) (A) (A) (A) (A) (A) (A) (A)
                 (A) (A) (A) (A) (A) (A) (A) (A) (A) (A) (A) (A)
                 (A) (A) (A) (A) (A) (A) (A) (A) (A) (A) (A) (A)
                 (A) (A) (A) (A) (A) (A) (A) (A) (A) (A) (A) (A)
                 (A) (A) (A) (A) (A) (A) (A) (A) (A) (A) (A) (A)
                 (A) (A) (A) (A) (A) (A) (A) (A) (A) (A) (A) (A)
                 (A) (A) (A) (A) (A) (A) (A) (A) (A) (A) (A) (A)
                 (A) (A) (A) (A) (A) (A) (A) (A) (A) (A) (A) (A)
                 (A) (A) (A) (A) (A) (A) (A) (A) (A) (A) (A) (A)
                 (A) (A) (A) (A) (A) (A) (A) (A) (A) (A) (A) (A)
                 (A) (A) (A) (A) (A) (A) (A) (A) (A) (A) (A) (A)
                 (A) (A) (A) (A) (A) (A) (A) (A) (A) (A) (A) (A)
                 (A) (A) (A) (A) (A) (A) (A) (A) (A) (A) (A) (A)
                 (A) (A) (A) (A) (A) (A) (A) (A) (A) (A) (A) (A)
                 (A) (A) (A) (A) (A) (A) (A) (A) (A) (A) (A) (A)
                 (A) (A) (A) (A) (A) (A) (A) (A) (A) (A) (A) (A)
                 (A) (A) (A) (A) (A) (A) (A) (A) (A) (A) (A) (A)
                 (A) (A) (A) (A) (A) (A) (A) (A) (A) (A) (A) (A)
                 (A) (A) (A) (A) (A) (A) (A) (A) (A) (A) (A) (A)
                 (A) (A) (A) (A) (A) (A) (A) (A) (A) (A) (A) (A)
                 (A) (A) (A) (A) (A) (A) (A) (A) (A) (A) (A) (A)
                 (A) (A) (A) (A) (A) (A) (A) (A) (A) (A) (A) (A)
                 (A) (A) (A) (A) (A) (A) (A) (A) (A) (A) (A) (A)
                 (A) (A) (A) (A) (A) (A) (A) (A) (A) (A) (A) (A)
                 (A) (A) (A) (A) (A) (A) (A) (A) (A) (A) (A) (A)
                 (A) (A) (A) (A) (A) (A) (A) (A) (A) (A) (A) (A)
                 (A) (A) (A) (A) (A) (A) (A) (A) (A) (A) (A) (A)
                 (A) (A) (A) (A) (A) (A) (A) (A) (A) (A) (A) (A)
                 (A) (A) (A) (A) (A) (A) (A) (A) (A) (A) (A) (A)
                 (A) (A) (A) (A) (A) (A) (A) (A) (A) (A) (A) (A)
                 (A) (A) (A) (A) (A) (A) (A) (A) (A) (A) (A) (A)
                 (A) (A) (A) (A) (A) (A) (A) (A) (A) (A) (A) (A)
                 (A) (A) (A) (A) (A) (A) (A) (A) (A) (A) (A) (A)
                 (A) (A) (A) (A) (A) (A) (A) (A) (A) (A) (A) (A)
                 (A) (A) (A) (A) (A) (A) (A) (A) (A) (A) (A) (A)
                 (A) (A) (A) (A) (A) (A) (A) (A) (A) (A) (A) (A)
                 (A) (A) (A) (A) (A)
 The electronic state is 1-A.
 Alpha  occ. eigenvalues --  -77.34227 -77.33789 -19.30552 -14.45952 -14.45663
 Alpha  occ. eigenvalues --  -14.45484 -14.45339 -14.44993 -14.44992 -10.35650
 Alpha  occ. eigenvalues --  -10.26326 -10.26157 -10.25853 -10.25836 -10.25826
 Alpha  occ. eigenvalues --  -10.25637 -10.25617 -10.25557 -10.25350 -10.25315
 Alpha  occ. eigenvalues --  -10.25057 -10.24797 -10.22917 -10.22683 -10.22406
 Alpha  occ. eigenvalues --  -10.22276 -10.22253 -10.22192 -10.22172 -10.22002
 Alpha  occ. eigenvalues --  -10.21877 -10.21786 -10.21574 -10.21436  -6.72347
 Alpha  occ. eigenvalues --   -6.71986  -4.86073  -4.86038  -4.85706  -4.85666
 Alpha  occ. eigenvalues --   -4.85587  -4.85208  -3.26903  -2.03365  -2.02258
 Alpha  occ. eigenvalues --   -1.98398  -1.16637  -1.04820  -1.04524  -1.01936
 Alpha  occ. eigenvalues --   -1.01564  -1.01142  -1.00832  -0.85413  -0.85150
 Alpha  occ. eigenvalues --   -0.80807  -0.80482  -0.79950  -0.79682  -0.76364
 Alpha  occ. eigenvalues --   -0.75831  -0.75634  -0.75420  -0.75115  -0.74581
 Alpha  occ. eigenvalues --   -0.69534  -0.69204  -0.61313  -0.61095  -0.60966
 Alpha  occ. eigenvalues --   -0.60749  -0.59893  -0.59774  -0.59301  -0.59003
 Alpha  occ. eigenvalues --   -0.58727  -0.58437  -0.58060  -0.57994  -0.57349
 Alpha  occ. eigenvalues --   -0.56722  -0.56493  -0.56209  -0.56071  -0.51304
 Alpha  occ. eigenvalues --   -0.50014  -0.48219  -0.47638  -0.47132  -0.46947
 Alpha  occ. eigenvalues --   -0.46219  -0.45932  -0.45789  -0.45367  -0.45084
 Alpha  occ. eigenvalues --   -0.44906  -0.44640  -0.44105  -0.43843  -0.43720
 Alpha  occ. eigenvalues --   -0.43547  -0.43091  -0.42390  -0.42098  -0.41959
 Alpha  occ. eigenvalues --   -0.41373  -0.41097  -0.40903  -0.40873  -0.40601
 Alpha  occ. eigenvalues --   -0.40272  -0.40107  -0.39941  -0.39491  -0.39309
 Alpha  occ. eigenvalues --   -0.39052  -0.38878  -0.38567  -0.36550  -0.32060
 Alpha  occ. eigenvalues --   -0.30988  -0.28568  -0.28400  -0.27859  -0.27347
 Alpha  occ. eigenvalues --   -0.26819  -0.26562  -0.26241  -0.25850  -0.24218
 Alpha  occ. eigenvalues --   -0.23812  -0.23522  -0.23222  -0.22696  -0.22608
 Alpha  occ. eigenvalues --   -0.21599
 Alpha virt. eigenvalues --   -0.06326  -0.01385  -0.00324   0.00656   0.01295
 Alpha virt. eigenvalues --    0.01748   0.01907   0.01916   0.02640   0.03810
 Alpha virt. eigenvalues --    0.03835   0.04776   0.05308   0.05845   0.06400
 Alpha virt. eigenvalues --    0.07066   0.07720   0.08232   0.08526   0.09068
 Alpha virt. eigenvalues --    0.09289   0.09631   0.10189   0.10793   0.11147
 Alpha virt. eigenvalues --    0.11450   0.11843   0.13001   0.13365   0.14491
 Alpha virt. eigenvalues --    0.14845   0.15446   0.15926   0.16247   0.16558
 Alpha virt. eigenvalues --    0.16926   0.17419   0.17509   0.17798   0.18335
 Alpha virt. eigenvalues --    0.18438   0.18761   0.18959   0.19116   0.19181
 Alpha virt. eigenvalues --    0.19286   0.19462   0.19616   0.20118   0.20493
 Alpha virt. eigenvalues --    0.21015   0.21269   0.21671   0.22076   0.22588
 Alpha virt. eigenvalues --    0.22847   0.23337   0.24399   0.24581   0.24866
 Alpha virt. eigenvalues --    0.25070   0.25294   0.25532   0.26542   0.27149
 Alpha virt. eigenvalues --    0.27970   0.29131   0.30381   0.30968   0.32886
 Alpha virt. eigenvalues --    0.33085   0.33536   0.34377   0.34745   0.35186
 Alpha virt. eigenvalues --    0.35699   0.36048   0.36603   0.37236   0.38034
 Alpha virt. eigenvalues --    0.39214   0.41061   0.41261   0.41902   0.43134
 Alpha virt. eigenvalues --    0.44204   0.44889   0.45349   0.46701   0.47213
 Alpha virt. eigenvalues --    0.47456   0.48803   0.49196   0.50527   0.51152
 Alpha virt. eigenvalues --    0.52316   0.53400   0.53939   0.54153   0.54495
 Alpha virt. eigenvalues --    0.55321   0.55627   0.56280   0.57202   0.57335
 Alpha virt. eigenvalues --    0.57943   0.58126   0.58568   0.59077   0.59600
 Alpha virt. eigenvalues --    0.59892   0.60377   0.60420   0.60586   0.60987
 Alpha virt. eigenvalues --    0.61127   0.61550   0.61612   0.61859   0.62266
 Alpha virt. eigenvalues --    0.62444   0.62944   0.63374   0.63458   0.63753
 Alpha virt. eigenvalues --    0.63957   0.64326   0.64641   0.65084   0.65387
 Alpha virt. eigenvalues --    0.65694   0.65841   0.66481   0.66920   0.67743
 Alpha virt. eigenvalues --    0.67882   0.68324   0.69188   0.69482   0.70275
 Alpha virt. eigenvalues --    0.70654   0.71142   0.72157   0.73193   0.73665
 Alpha virt. eigenvalues --    0.74259   0.75769   0.75926   0.76333   0.76497
 Alpha virt. eigenvalues --    0.77276   0.77714   0.78309   0.78764   0.79431
 Alpha virt. eigenvalues --    0.80353   0.81338   0.82313   0.82925   0.83147
 Alpha virt. eigenvalues --    0.83498   0.83676   0.84640   0.84781   0.84892
 Alpha virt. eigenvalues --    0.85127   0.85351   0.85914   0.85998   0.86206
 Alpha virt. eigenvalues --    0.86340   0.86736   0.87196   0.87256   0.87707
 Alpha virt. eigenvalues --    0.88124   0.88399   0.89216   0.89677   0.90047
 Alpha virt. eigenvalues --    0.90514   0.90766   0.91176   0.91316   0.91678
 Alpha virt. eigenvalues --    0.92266   0.92916   0.92989   0.93202   0.94057
 Alpha virt. eigenvalues --    0.94797   0.95253   0.95814   0.96013   0.96258
 Alpha virt. eigenvalues --    0.96559   0.97265   0.97861   0.98678   0.98832
 Alpha virt. eigenvalues --    0.99711   1.00096   1.00971   1.01674   1.02499
 Alpha virt. eigenvalues --    1.02734   1.03221   1.03892   1.04173   1.05112
 Alpha virt. eigenvalues --    1.05877   1.06403   1.06998   1.07670   1.08180
 Alpha virt. eigenvalues --    1.09207   1.09702   1.09862   1.10406   1.10607
 Alpha virt. eigenvalues --    1.10906   1.13985   1.14299   1.15581   1.16437
 Alpha virt. eigenvalues --    1.16864   1.17185   1.18740   1.19157   1.19954
 Alpha virt. eigenvalues --    1.20109   1.20969   1.21648   1.21914   1.22806
 Alpha virt. eigenvalues --    1.23872   1.24793   1.26126   1.26961   1.27969
 Alpha virt. eigenvalues --    1.29072   1.30910   1.31920   1.32557   1.33060
 Alpha virt. eigenvalues --    1.33511   1.34029   1.34115   1.34527   1.35689
 Alpha virt. eigenvalues --    1.36337   1.37157   1.37646   1.38188   1.38525
 Alpha virt. eigenvalues --    1.39038   1.39263   1.39333   1.40440   1.40714
 Alpha virt. eigenvalues --    1.41102   1.41436   1.41941   1.43731   1.44174
 Alpha virt. eigenvalues --    1.44528   1.44832   1.45002   1.46032   1.46543
 Alpha virt. eigenvalues --    1.47391   1.47967   1.48443   1.48719   1.49277
 Alpha virt. eigenvalues --    1.50220   1.51622   1.52328   1.52684   1.52950
 Alpha virt. eigenvalues --    1.53577   1.54760   1.55619   1.55990   1.57047
 Alpha virt. eigenvalues --    1.57294   1.58912   1.59709   1.60654   1.61228
 Alpha virt. eigenvalues --    1.62197   1.62781   1.65386   1.66444   1.67734
 Alpha virt. eigenvalues --    1.69230   1.69959   1.71386   1.72553   1.73325
 Alpha virt. eigenvalues --    1.76908   1.77992   1.83510   1.84356   1.84377
 Alpha virt. eigenvalues --    1.85136   1.85807   1.85987   1.86588   1.86883
 Alpha virt. eigenvalues --    1.87166   1.87694   1.89477   1.91283   1.91950
 Alpha virt. eigenvalues --    1.92160   1.92406   1.92859   1.93663   1.94312
 Alpha virt. eigenvalues --    1.95852   1.96295   1.96925   1.97653   1.98143
 Alpha virt. eigenvalues --    1.98789   1.99302   1.99722   2.00334   2.00955
 Alpha virt. eigenvalues --    2.01195   2.01253   2.01767   2.02194   2.02305
 Alpha virt. eigenvalues --    2.03079   2.03518   2.03727   2.04437   2.04859
 Alpha virt. eigenvalues --    2.05676   2.06395   2.07594   2.08102   2.08871
 Alpha virt. eigenvalues --    2.09528   2.09952   2.11931   2.12916   2.13501
 Alpha virt. eigenvalues --    2.13710   2.15059   2.15605   2.17551   2.17906
 Alpha virt. eigenvalues --    2.18076   2.18368   2.18645   2.18943   2.19303
 Alpha virt. eigenvalues --    2.20037   2.20681   2.20819   2.21270   2.22852
 Alpha virt. eigenvalues --    2.24001   2.24851   2.25073   2.25815   2.26086
 Alpha virt. eigenvalues --    2.26960   2.27598   2.28560   2.29088   2.30209
 Alpha virt. eigenvalues --    2.32215   2.32725   2.33209   2.39589   2.40513
 Alpha virt. eigenvalues --    2.40748   2.40982   2.41111   2.41664   2.42561
 Alpha virt. eigenvalues --    2.43218   2.43376   2.43529   2.44269   2.44392
 Alpha virt. eigenvalues --    2.44586   2.45003   2.45466   2.45818   2.46023
 Alpha virt. eigenvalues --    2.46315   2.46425   2.48618   2.48719   2.49082
 Alpha virt. eigenvalues --    2.49279   2.49568   2.49829   2.50915   2.51638
 Alpha virt. eigenvalues --    2.51878   2.52059   2.52895   2.54596   2.54872
 Alpha virt. eigenvalues --    2.55308   2.55530   2.55895   2.56054   2.56728
 Alpha virt. eigenvalues --    2.56823   2.57138   2.57271   2.57456   2.58008
 Alpha virt. eigenvalues --    2.59615   2.59822   2.61037   2.61969   2.63116
 Alpha virt. eigenvalues --    2.63958   2.64645   2.65230   2.66298   2.66874
 Alpha virt. eigenvalues --    2.67213   2.67786   2.68813   2.69163   2.70410
 Alpha virt. eigenvalues --    2.70808   2.71143   2.71745   2.73496   2.74129
 Alpha virt. eigenvalues --    2.75569   2.77322   2.78838   2.79134   2.79299
 Alpha virt. eigenvalues --    2.79455   2.79552   2.80900   2.82043   2.83242
 Alpha virt. eigenvalues --    2.84191   2.85601   2.86026   2.86768   2.87997
 Alpha virt. eigenvalues --    2.88473   2.89371   2.89602   2.89929   2.90628
 Alpha virt. eigenvalues --    2.91140   2.93811   2.94766   2.95802   2.96652
 Alpha virt. eigenvalues --    2.97318   2.98966   3.00960   3.04771   3.05214
 Alpha virt. eigenvalues --    3.05315   3.05986   3.06576   3.06974   3.15543
 Alpha virt. eigenvalues --    3.26193   3.26529   3.27013   3.27157   3.27406
 Alpha virt. eigenvalues --    3.27438   3.27675   3.27836   3.27938   3.28330
 Alpha virt. eigenvalues --    3.28493   3.28785   3.36580   3.36842   3.37268
 Alpha virt. eigenvalues --    3.37450   3.37526   3.38011   3.69938   3.70408
 Alpha virt. eigenvalues --    3.71005   3.71285   3.71504   3.72399   3.93886
 Alpha virt. eigenvalues --    3.94564   3.94648   3.94707   3.94929   3.96105
 Alpha virt. eigenvalues --   37.19403  37.48919  37.84855  49.26633
          Condensed to atoms (all electrons):
 Mulliken charges:
               1
     1  O   -0.277122
     2  C    0.357758
     3  Rh  -0.880464
     4  P    1.155681
     5  N   -0.587460
     6  C    0.066734
     7  C   -0.188801
     8  C   -0.195066
     9  C    0.067730
    10  N   -0.594476
    11  C    0.052246
    12  C   -0.187290
    13  C   -0.191751
    14  C    0.047483
    15  N   -0.604494
    16  C    0.055057
    17  C   -0.175091
    18  C   -0.176517
    19  C    0.025056
    20  P    1.104138
    21  N   -0.590350
    22  C    0.055251
    23  C   -0.185824
    24  C   -0.191701
    25  C    0.044466
    26  N   -0.576967
    27  C    0.024689
    28  C   -0.179805
    29  C   -0.181551
    30  C    0.075625
    31  N   -0.587278
    32  C    0.033206
    33  C   -0.174797
    34  C   -0.184947
    35  C    0.042360
    36  H    0.026042
    37  H    0.147197
    38  H    0.131043
    39  H    0.131793
    40  H    0.196281
    41  H    0.164615
    42  H    0.131540
    43  H    0.132972
    44  H    0.213108
    45  H    0.167173
    46  H    0.122682
    47  H    0.124674
    48  H    0.169701
    49  H    0.158135
    50  H    0.133508
    51  H    0.137916
    52  H    0.211054
    53  H    0.202356
    54  H    0.131029
    55  H    0.127738
    56  H    0.142554
    57  H    0.171640
    58  H    0.129640
    59  H    0.129344
    60  H    0.170536
 Sum of Mulliken charges =  -0.00000
 Mulliken charges with hydrogens summed into heavy atoms:
               1
     1  O   -0.277122
     2  C    0.357758
     3  Rh  -0.854422
     4  P    1.155681
     5  N   -0.587460
     6  C    0.213931
     7  C   -0.057757
     8  C   -0.063273
     9  C    0.264011
    10  N   -0.594476
    11  C    0.216861
    12  C   -0.055750
    13  C   -0.058778
    14  C    0.260591
    15  N   -0.604494
    16  C    0.222230
    17  C   -0.052409
    18  C   -0.051844
    19  C    0.194756
    20  P    1.104138
    21  N   -0.590350
    22  C    0.213386
    23  C   -0.052316
    24  C   -0.053784
    25  C    0.255519
    26  N   -0.576967
    27  C    0.227044
    28  C   -0.048775
    29  C   -0.053813
    30  C    0.218179
    31  N   -0.587278
    32  C    0.204846
    33  C   -0.045157
    34  C   -0.055603
    35  C    0.212897
 Electronic spatial extent (au):  <R**2>=          13597.4703
 Charge=             -0.0000 electrons
 Dipole moment (field-independent basis, Debye):
    X=             -0.0247    Y=             -0.3392    Z=              3.2423  Tot=              3.2601
 Quadrupole moment (field-independent basis, Debye-Ang):
   XX=           -225.1619   YY=           -215.6721   ZZ=           -232.7177
   XY=              1.2353   XZ=              1.7486   YZ=              2.5839
 Traceless Quadrupole moment (field-independent basis, Debye-Ang):
   XX=             -0.6446   YY=              8.8451   ZZ=             -8.2005
   XY=              1.2353   XZ=              1.7486   YZ=              2.5839
 Octapole moment (field-independent basis, Debye-Ang**2):
  XXX=              9.7827  YYY=             18.4820  ZZZ=            -22.0158  XYY=            -16.3775
  XXY=             -0.3131  XXZ=             -7.4865  XZZ=             17.6989  YZZ=             -5.9098
  YYZ=            -23.3794  XYZ=             -6.7192
 Hexadecapole moment (field-independent basis, Debye-Ang**3):
 XXXX=          -9256.8024 YYYY=          -4571.1508 ZZZZ=          -4144.4778 XXXY=             60.0692
 XXXZ=           -227.3102 YYYX=            -41.6046 YYYZ=            -21.8822 ZZZX=             95.9334
 ZZZY=            -22.9943 XXYY=          -2274.0943 XXZZ=          -2343.0119 YYZZ=          -1387.4947
 XXYZ=             77.1825 YYXZ=             33.8461 ZZXY=             33.2971
 N-N= 4.770186636999D+03 E-N=-1.458182882536D+04  KE= 2.084400490553D+03
   1 Symmetry operations used in ECPInt.
 ECPInt:  NShTT=   25878 NPrTT=  142506 LenC2=   21314 LenP2D=   65945.
 LDataN:  DoStor=T MaxTD1= 7 Len=  274
 Calling FoFJK, ICntrl=      2127 FMM=T ISym2X=0 I1Cent= 0 IOpClX= 0 NMat=1 NMatS=1 NMatT=0.
 Defaulting to unpruned grid for atomic number  45.
 Defaulting to unpruned grid for atomic number  45.
 Defaulting to unpruned grid for atomic number  45.
 Defaulting to unpruned grid for atomic number  45.
 Defaulting to unpruned grid for atomic number  45.
 Defaulting to unpruned grid for atomic number  45.
 Defaulting to unpruned grid for atomic number  45.
 Defaulting to unpruned grid for atomic number  45.
 Defaulting to unpruned grid for atomic number  45.
 Defaulting to unpruned grid for atomic number  45.
 Defaulting to unpruned grid for atomic number  45.
 Defaulting to unpruned grid for atomic number  45.
 Defaulting to unpruned grid for atomic number  45.
 Defaulting to unpruned grid for atomic number  45.
 Defaulting to unpruned grid for atomic number  45.
 Defaulting to unpruned grid for atomic number  45.
 ***** Axes restored to original set *****
 -------------------------------------------------------------------
 Center     Atomic                   Forces (Hartrees/Bohr)
 Number     Number              X              Y              Z
 -------------------------------------------------------------------
      1        8          -0.004392241   -0.005819009    0.002773004
      2        6          -0.004921518   -0.012661045    0.004971209
      3       45          -0.019776863    0.023663214   -0.005668349
      4       15           0.015268159    0.002731260   -0.003721162
      5        7          -0.001651981   -0.003397678   -0.001905723
      6        6           0.008702453    0.009268820    0.001366380
      7        6           0.000804937   -0.000362134   -0.001431910
      8        6           0.000789992   -0.000378055   -0.002784630
      9        6          -0.011392409   -0.012175296   -0.001475294
     10        7          -0.003507733    0.000140273    0.004465317
     11        6           0.006557487    0.009551052   -0.007663399
     12        6           0.001315486   -0.000078351    0.001360340
     13        6           0.001299051    0.001003790    0.001814310
     14        6          -0.006587056   -0.012404808    0.009295187
     15        7          -0.000712296   -0.001918544    0.003175326
     16        6           0.003973729   -0.004475974   -0.014083759
     17        6           0.000264685    0.001170282   -0.000391532
     18        6          -0.000475733    0.001444518    0.000036358
     19        6          -0.001664948    0.008526573    0.014083080
     20       15          -0.003585114    0.009344914   -0.005508049
     21        7           0.002096932   -0.001676835    0.003784572
     22        6          -0.009670603    0.005982884   -0.006173397
     23        6           0.000579344    0.002015761    0.001256544
     24        6           0.000045989    0.002343249    0.001585110
     25        6           0.012679745   -0.007838765    0.007193185
     26        7           0.004764565   -0.002584649   -0.001530945
     27        6           0.005696444   -0.014015830   -0.006131451
     28        6          -0.003378502    0.000214636   -0.002970376
     29        6          -0.001918983   -0.001432805   -0.002364755
     30        6          -0.006698476    0.009110718    0.003459314
     31        7          -0.003244438   -0.003143270    0.003172535
     32        6           0.001867281    0.002513223    0.012198774
     33        6          -0.002715746   -0.002338268   -0.000362770
     34        6          -0.002147789   -0.002037710    0.001511731
     35        6           0.001107628    0.000606933   -0.013215695
     36        1           0.021535224   -0.017446727    0.002863233
     37        1           0.001323489    0.004204723    0.002462491
     38        1           0.006032442    0.001650429   -0.002527257
     39        1          -0.001244162   -0.005735888   -0.003375215
     40        1          -0.001362763   -0.000861170    0.001502739
     41        1          -0.000970301    0.002579236   -0.004602411
     42        1           0.004669979    0.004840895    0.000635854
     43        1           0.000209894   -0.002808996    0.006236962
     44        1          -0.001272395   -0.001991984   -0.000872089
     45        1           0.001319400   -0.004358701   -0.002247378
     46        1          -0.000438340    0.001584324   -0.006512947
     47        1          -0.001637924    0.005771849    0.002983542
     48        1          -0.000606505   -0.000334107    0.004728279
     49        1          -0.004105123   -0.000621420   -0.003430712
     50        1          -0.004050970    0.005450462    0.001260086
     51        1           0.004221767    0.000364364    0.005133828
     52        1           0.000694240   -0.000026427   -0.000303173
     53        1           0.000199648    0.000114248    0.000372381
     54        1           0.002527397   -0.003253119   -0.005335012
     55        1          -0.001975131    0.005971236   -0.003127569
     56        1          -0.001298293    0.003327513    0.003997962
     57        1           0.002266302    0.001970818    0.004039577
     58        1          -0.003715703   -0.001118258    0.005530655
     59        1          -0.004521777   -0.001676908   -0.004603305
     60        1           0.002828126    0.001510537   -0.004929596
 -------------------------------------------------------------------
 Cartesian Forces:  Max     0.023663214 RMS     0.005798159

 GradGradGradGradGradGradGradGradGradGradGradGradGradGradGradGradGradGrad
 Berny optimization.
 FormGI is forming the generalized inverse of G from B-inverse, IUseBI=4.
 Internal  Forces:  Max     0.027717289 RMS     0.005032282
 Search for a local minimum.
 Step number   1 out of a maximum of  355
 All quantities printed in internal units (Hartrees-Bohrs-Radians)
 Mixed Optimization -- RFO/linear search
 Second derivative matrix not updated -- first step.
 ITU=  0
     Eigenvalues ---    0.00230   0.00230   0.00230   0.00230   0.00662
     Eigenvalues ---    0.00662   0.01868   0.01935   0.02024   0.02043
     Eigenvalues ---    0.02049   0.02049   0.02056   0.02062   0.02073
     Eigenvalues ---    0.02085   0.02097   0.02099   0.02102   0.02103
     Eigenvalues ---    0.02107   0.02111   0.02114   0.02120   0.02130
     Eigenvalues ---    0.02131   0.02133   0.02134   0.02141   0.02206
     Eigenvalues ---    0.02267   0.02268   0.02269   0.02269   0.02271
     Eigenvalues ---    0.02274   0.02326   0.02326   0.02329   0.02329
     Eigenvalues ---    0.02329   0.02330   0.02369   0.02371   0.02372
     Eigenvalues ---    0.02372   0.02374   0.02377   0.02432   0.02434
     Eigenvalues ---    0.02436   0.02438   0.02438   0.02441   0.04849
     Eigenvalues ---    0.05211   0.06038   0.06155   0.09449   0.10365
     Eigenvalues ---    0.11566   0.11933   0.15973   0.15979   0.15985
     Eigenvalues ---    0.15988   0.15988   0.15989   0.15992   0.15994
     Eigenvalues ---    0.15994   0.15994   0.15998   0.15998   0.15999
     Eigenvalues ---    0.15999   0.15999   0.15999   0.16000   0.16000
     Eigenvalues ---    0.16000   0.16000   0.16000   0.16000   0.16000
     Eigenvalues ---    0.16000   0.16058   0.16066   0.17761   0.17873
     Eigenvalues ---    0.18039   0.18319   0.20010   0.21416   0.21988
     Eigenvalues ---    0.21995   0.21998   0.22000   0.22000   0.22000
     Eigenvalues ---    0.22883   0.23001   0.23068   0.23089   0.23145
     Eigenvalues ---    0.23154   0.23169   0.23714   0.24270   0.24766
     Eigenvalues ---    0.24835   0.24967   0.28839   0.33940   0.34514
     Eigenvalues ---    0.35469   0.35731   0.35841   0.35872   0.36133
     Eigenvalues ---    0.36145   0.36165   0.36256   0.36691   0.36791
     Eigenvalues ---    0.36815   0.36915   0.36923   0.36936   0.36941
     Eigenvalues ---    0.36946   0.36955   0.36958   0.36959   0.36975
     Eigenvalues ---    0.36975   0.36980   0.36985   0.36991   0.36991
     Eigenvalues ---    0.36996   0.37016   0.37118   0.39903   0.39925
     Eigenvalues ---    0.39932   0.39995   0.40031   0.40144   0.44763
     Eigenvalues ---    0.44785   0.44795   0.44820   0.44829   0.44878
     Eigenvalues ---    0.47230   0.47309   0.47343   0.47371   0.47400
     Eigenvalues ---    0.47551   0.50895   0.50908   0.50942   0.50949
     Eigenvalues ---    0.50998   0.51001   0.52625   0.52686   0.52706
     Eigenvalues ---    0.52814   0.52853   0.52853   1.38598
 RFO step:  Lambda=-3.68993812D-02 EMin= 2.30000000D-03
 Linear search not attempted -- first point.
 Maximum step size (   0.300) exceeded in Quadratic search.
    -- Step size scaled by   0.809
 Iteration  1 RMS(Cart)=  0.28518029 RMS(Int)=  0.00576245
 Iteration  2 RMS(Cart)=  0.03554941 RMS(Int)=  0.00036783
 Iteration  3 RMS(Cart)=  0.00033355 RMS(Int)=  0.00035650
 Iteration  4 RMS(Cart)=  0.00000015 RMS(Int)=  0.00035650
 Variable       Old X    -DE/DX   Delta X   Delta X   Delta X     New X
                                 (Linear)    (Quad)   (Total)
    R1        2.16253   0.00775   0.00000   0.00440   0.00440   2.16694
    R2        3.47330   0.02140   0.00000   0.05321   0.05321   3.52651
    R3        4.24264   0.01587   0.00000   0.05908   0.05908   4.30172
    R4        4.23177   0.01518   0.00000   0.05578   0.05578   4.28755
    R5        2.88749   0.02772   0.00000   0.09458   0.09458   2.98207
    R6        3.20825   0.01002   0.00000   0.02034   0.02034   3.22859
    R7        3.21331   0.00915   0.00000   0.01871   0.01871   3.23203
    R8        3.24431   0.00594   0.00000   0.01276   0.01276   3.25706
    R9        2.59930   0.01054   0.00000   0.01621   0.01621   2.61551
   R10        2.60094   0.01298   0.00000   0.02014   0.02014   2.62108
   R11        2.57029   0.00771   0.00000   0.01072   0.01072   2.58100
   R12        2.02560   0.00492   0.00000   0.00979   0.00979   2.03539
   R13        2.67805   0.01132   0.00000   0.01907   0.01907   2.69712
   R14        2.02644   0.00654   0.00000   0.01303   0.01303   2.03946
   R15        2.56759   0.00817   0.00000   0.01162   0.01162   2.57921
   R16        2.02560   0.00655   0.00000   0.01301   0.01301   2.03861
   R17        2.03875   0.00192   0.00000   0.00389   0.00389   2.04264
   R18        2.60148   0.01076   0.00000   0.01662   0.01662   2.61811
[...]
                 (A) (A) (A) (A) (A) (A) (A) (A) (A) (A) (A) (A)
                 (A) (A) (A) (A) (A) (A) (A) (A) (A) (A) (A) (A)
                 (A) (A) (A) (A) (A) (A) (A) (A) (A) (A) (A) (A)
                 (A) (A) (A) (A) (A) (A) (A) (A) (A) (A) (A) (A)
                 (A) (A) (A) (A) (A) (A) (A) (A) (A) (A) (A) (A)
                 (A) (A) (A) (A) (A) (A) (A) (A) (A) (A) (A) (A)
                 (A) (A) (A) (A) (A) (A) (A) (A) (A) (A) (A) (A)
                 (A) (A) (A) (A) (A) (A) (A) (A) (A) (A) (A) (A)
                 (A) (A) (A) (A) (A) (A) (A) (A) (A) (A) (A) (A)
                 (A) (A) (A) (A) (A) (A) (A) (A) (A) (A) (A) (A)
                 (A) (A) (A) (A) (A) (A) (A) (A) (A) (A) (A) (A)
                 (A) (A) (A) (A) (A) (A) (A) (A) (A) (A) (A) (A)
                 (A) (A) (A) (A) (A) (A) (A) (A) (A) (A) (A) (A)
                 (A) (A) (A) (A) (A) (A) (A) (A) (A) (A) (A) (A)
                 (A) (A) (A) (A) (A) (A) (A) (A) (A) (A) (A) (A)
                 (A) (A) (A) (A) (A) (A) (A) (A) (A) (A) (A) (A)
                 (A) (A) (A) (A) (A) (A) (A) (A) (A) (A) (A) (A)
                 (A) (A) (A) (A) (A) (A) (A) (A) (A) (A) (A) (A)
                 (A) (A) (A) (A) (A) (A) (A) (A) (A) (A) (A) (A)
                 (A) (A) (A) (A) (A) (A) (A) (A) (A) (A) (A) (A)
                 (A) (A) (A) (A) (A) (A) (A) (A) (A) (A) (A) (A)
                 (A) (A) (A) (A) (A) (A) (A) (A) (A) (A) (A) (A)
                 (A) (A) (A) (A) (A) (A) (A) (A) (A) (A) (A) (A)
                 (A) (A) (A) (A) (A) (A) (A) (A) (A) (A) (A) (A)
                 (A) (A) (A) (A) (A) (A) (A) (A) (A) (A) (A) (A)
                 (A) (A) (A) (A) (A) (A) (A) (A) (A) (A) (A) (A)
                 (A) (A) (A) (A) (A) (A) (A) (A) (A) (A) (A) (A)
                 (A) (A) (A) (A) (A) (A) (A) (A) (A) (A) (A) (A)
                 (A) (A) (A) (A) (A) (A) (A) (A) (A) (A) (A) (A)
                 (A) (A) (A) (A) (A) (A) (A) (A) (A) (A) (A) (A)
                 (A) (A) (A) (A) (A) (A) (A) (A) (A) (A) (A) (A)
                 (A) (A) (A) (A) (A) (A) (A) (A) (A) (A) (A) (A)
                 (A) (A) (A) (A) (A) (A) (A) (A) (A) (A) (A) (A)
                 (A) (A) (A) (A) (A) (A) (A) (A) (A) (A) (A) (A)
                 (A) (A) (A) (A) (A) (A) (A) (A) (A) (A) (A) (A)
                 (A) (A) (A) (A) (A) (A) (A) (A) (A) (A) (A) (A)
                 (A) (A) (A) (A) (A) (A) (A) (A) (A) (A) (A) (A)
                 (A) (A) (A) (A) (A)
 The electronic state is 1-A.
 Alpha  occ. eigenvalues --  -77.34437 -77.33714 -19.30533 -14.45938 -14.45921
 Alpha  occ. eigenvalues --  -14.45659 -14.45520 -14.45270 -14.44825 -10.35678
 Alpha  occ. eigenvalues --  -10.26411 -10.26405 -10.26282 -10.26255 -10.26116
 Alpha  occ. eigenvalues --  -10.26101 -10.26069 -10.25969 -10.25596 -10.25507
 Alpha  occ. eigenvalues --  -10.25416 -10.25396 -10.23121 -10.22939 -10.22927
 Alpha  occ. eigenvalues --  -10.22793 -10.22789 -10.22738 -10.22716 -10.22552
 Alpha  occ. eigenvalues --  -10.22246 -10.22090 -10.22069 -10.21918  -6.72437
 Alpha  occ. eigenvalues --   -6.71802  -4.86158  -4.86140  -4.85690  -4.85520
 Alpha  occ. eigenvalues --   -4.85493  -4.85026  -3.26260  -2.02548  -2.01562
 Alpha  occ. eigenvalues --   -1.97743  -1.16402  -1.03887  -1.03698  -1.01019
 Alpha  occ. eigenvalues --   -1.00942  -1.00265  -1.00096  -0.84750  -0.84533
 Alpha  occ. eigenvalues --   -0.80244  -0.80209  -0.79444  -0.79260  -0.76025
 Alpha  occ. eigenvalues --   -0.75743  -0.75522  -0.75327  -0.74714  -0.74583
 Alpha  occ. eigenvalues --   -0.68964  -0.68669  -0.60737  -0.60705  -0.60604
 Alpha  occ. eigenvalues --   -0.60443  -0.59660  -0.59511  -0.58787  -0.58580
 Alpha  occ. eigenvalues --   -0.58379  -0.58242  -0.58029  -0.57747  -0.57293
 Alpha  occ. eigenvalues --   -0.56323  -0.56229  -0.56030  -0.55923  -0.50658
 Alpha  occ. eigenvalues --   -0.49464  -0.47693  -0.47166  -0.46810  -0.46218
 Alpha  occ. eigenvalues --   -0.45822  -0.45428  -0.45258  -0.45034  -0.44944
 Alpha  occ. eigenvalues --   -0.44747  -0.44150  -0.43922  -0.43797  -0.43649
 Alpha  occ. eigenvalues --   -0.43431  -0.42795  -0.42378  -0.41967  -0.41759
 Alpha  occ. eigenvalues --   -0.41100  -0.40942  -0.40641  -0.40422  -0.40286
 Alpha  occ. eigenvalues --   -0.40186  -0.40077  -0.39767  -0.39493  -0.39467
 Alpha  occ. eigenvalues --   -0.39373  -0.38976  -0.38730  -0.36399  -0.30872
 Alpha  occ. eigenvalues --   -0.30751  -0.28126  -0.27930  -0.27498  -0.27041
 Alpha  occ. eigenvalues --   -0.26459  -0.26096  -0.26020  -0.25425  -0.24360
 Alpha  occ. eigenvalues --   -0.23736  -0.23689  -0.23421  -0.22629  -0.22207
 Alpha  occ. eigenvalues --   -0.21974
 Alpha virt. eigenvalues --   -0.06066  -0.01469  -0.00342   0.00251   0.00983
 Alpha virt. eigenvalues --    0.01582   0.01750   0.01813   0.02488   0.03574
 Alpha virt. eigenvalues --    0.03783   0.04795   0.05237   0.05607   0.06173
 Alpha virt. eigenvalues --    0.06402   0.07353   0.07989   0.08180   0.08745
 Alpha virt. eigenvalues --    0.08829   0.09291   0.09661   0.10259   0.11021
 Alpha virt. eigenvalues --    0.11234   0.11800   0.12398   0.13038   0.14078
 Alpha virt. eigenvalues --    0.14687   0.15284   0.15369   0.16140   0.16427
 Alpha virt. eigenvalues --    0.16707   0.16966   0.17182   0.17373   0.17772
 Alpha virt. eigenvalues --    0.18175   0.18304   0.18554   0.18716   0.18784
 Alpha virt. eigenvalues --    0.18868   0.18899   0.19588   0.19662   0.20068
 Alpha virt. eigenvalues --    0.20497   0.20671   0.21064   0.21620   0.22022
 Alpha virt. eigenvalues --    0.22375   0.23157   0.23880   0.24000   0.24432
 Alpha virt. eigenvalues --    0.24733   0.24772   0.25145   0.25539   0.26738
 Alpha virt. eigenvalues --    0.27505   0.28702   0.29855   0.30704   0.32000
 Alpha virt. eigenvalues --    0.32845   0.33035   0.33591   0.34380   0.34617
 Alpha virt. eigenvalues --    0.35265   0.35601   0.36558   0.36990   0.37106
 Alpha virt. eigenvalues --    0.38681   0.40253   0.41000   0.41370   0.43127
 Alpha virt. eigenvalues --    0.43753   0.44004   0.44854   0.45957   0.47178
 Alpha virt. eigenvalues --    0.47617   0.48487   0.48828   0.49744   0.51124
 Alpha virt. eigenvalues --    0.52226   0.52499   0.53369   0.53853   0.54373
 Alpha virt. eigenvalues --    0.55056   0.55584   0.56044   0.57186   0.57654
 Alpha virt. eigenvalues --    0.57768   0.57856   0.58294   0.58811   0.59239
 Alpha virt. eigenvalues --    0.59678   0.59931   0.60168   0.60552   0.60640
 Alpha virt. eigenvalues --    0.60907   0.61067   0.61179   0.61685   0.61899
 Alpha virt. eigenvalues --    0.62189   0.62319   0.62826   0.63195   0.63393
 Alpha virt. eigenvalues --    0.63527   0.63998   0.64056   0.64422   0.64784
 Alpha virt. eigenvalues --    0.65369   0.65670   0.65799   0.66352   0.67216
 Alpha virt. eigenvalues --    0.67681   0.67906   0.68644   0.68917   0.69444
 Alpha virt. eigenvalues --    0.69879   0.70761   0.71450   0.72354   0.72907
 Alpha virt. eigenvalues --    0.73828   0.74218   0.74747   0.75269   0.76868
 Alpha virt. eigenvalues --    0.77309   0.77754   0.78138   0.79145   0.79324
 Alpha virt. eigenvalues --    0.80167   0.80700   0.81928   0.82339   0.82789
 Alpha virt. eigenvalues --    0.83156   0.83609   0.84015   0.84180   0.84622
 Alpha virt. eigenvalues --    0.84670   0.84893   0.85031   0.85202   0.85480
 Alpha virt. eigenvalues --    0.85913   0.86138   0.86456   0.86800   0.87271
 Alpha virt. eigenvalues --    0.87503   0.87854   0.88420   0.88739   0.89200
 Alpha virt. eigenvalues --    0.89635   0.89972   0.90582   0.90746   0.91139
 Alpha virt. eigenvalues --    0.91373   0.91760   0.92990   0.93405   0.93684
 Alpha virt. eigenvalues --    0.94198   0.94467   0.94984   0.95832   0.96108
 Alpha virt. eigenvalues --    0.96464   0.96982   0.97478   0.97519   0.98647
 Alpha virt. eigenvalues --    0.98969   0.99188   0.99789   1.00660   1.01278
 Alpha virt. eigenvalues --    1.01627   1.02441   1.02721   1.03313   1.03705
 Alpha virt. eigenvalues --    1.04770   1.05292   1.05972   1.06197   1.07092
 Alpha virt. eigenvalues --    1.07751   1.08730   1.09687   1.09984   1.10929
 Alpha virt. eigenvalues --    1.11467   1.11941   1.12853   1.14958   1.15528
 Alpha virt. eigenvalues --    1.15722   1.16152   1.17512   1.17971   1.18763
 Alpha virt. eigenvalues --    1.19714   1.19793   1.20885   1.21095   1.22455
 Alpha virt. eigenvalues --    1.22844   1.23683   1.24836   1.26843   1.27120
 Alpha virt. eigenvalues --    1.28640   1.29339   1.30580   1.31055   1.31998
 Alpha virt. eigenvalues --    1.32299   1.33826   1.34118   1.34476   1.34713
 Alpha virt. eigenvalues --    1.35311   1.36502   1.37150   1.37186   1.37796
 Alpha virt. eigenvalues --    1.38694   1.38789   1.39153   1.39376   1.39644
 Alpha virt. eigenvalues --    1.40346   1.41119   1.41600   1.42469   1.43100
 Alpha virt. eigenvalues --    1.43435   1.44074   1.44228   1.44340   1.45271
 Alpha virt. eigenvalues --    1.46020   1.46382   1.47246   1.47765   1.48012
 Alpha virt. eigenvalues --    1.48969   1.50009   1.50659   1.51792   1.52127
 Alpha virt. eigenvalues --    1.52805   1.53340   1.54801   1.55223   1.56374
 Alpha virt. eigenvalues --    1.56713   1.57786   1.58451   1.59573   1.59879
 Alpha virt. eigenvalues --    1.60688   1.62471   1.64948   1.65887   1.67251
 Alpha virt. eigenvalues --    1.68144   1.69599   1.69787   1.72089   1.72730
 Alpha virt. eigenvalues --    1.74901   1.76239   1.82570   1.83188   1.83563
 Alpha virt. eigenvalues --    1.84173   1.84353   1.84678   1.85271   1.85395
 Alpha virt. eigenvalues --    1.85755   1.86136   1.87840   1.90376   1.90575
 Alpha virt. eigenvalues --    1.90855   1.91252   1.91456   1.91827   1.92608
 Alpha virt. eigenvalues --    1.93998   1.94842   1.95266   1.96285   1.96623
 Alpha virt. eigenvalues --    1.97565   1.97913   1.98912   1.99083   1.99565
 Alpha virt. eigenvalues --    1.99942   2.00104   2.00442   2.00939   2.00949
 Alpha virt. eigenvalues --    2.01573   2.02601   2.02956   2.03365   2.03888
 Alpha virt. eigenvalues --    2.04511   2.04901   2.05575   2.06166   2.07128
 Alpha virt. eigenvalues --    2.08993   2.09284   2.10278   2.10819   2.12201
 Alpha virt. eigenvalues --    2.12825   2.13771   2.14304   2.16450   2.16908
 Alpha virt. eigenvalues --    2.17232   2.17476   2.17554   2.18048   2.18098
 Alpha virt. eigenvalues --    2.18493   2.19102   2.19279   2.19971   2.21119
 Alpha virt. eigenvalues --    2.22463   2.23052   2.23652   2.24361   2.24537
 Alpha virt. eigenvalues --    2.25100   2.25954   2.26878   2.27677   2.27968
 Alpha virt. eigenvalues --    2.29073   2.30433   2.32608   2.38049   2.39472
 Alpha virt. eigenvalues --    2.39549   2.39866   2.40137   2.40484   2.41084
 Alpha virt. eigenvalues --    2.41686   2.41768   2.41876   2.42777   2.42937
 Alpha virt. eigenvalues --    2.43051   2.43783   2.44198   2.44544   2.44810
 Alpha virt. eigenvalues --    2.44943   2.45484   2.47801   2.47809   2.47986
 Alpha virt. eigenvalues --    2.48357   2.48855   2.48909   2.49754   2.49985
 Alpha virt. eigenvalues --    2.50927   2.51066   2.52148   2.53027   2.53660
 Alpha virt. eigenvalues --    2.54092   2.54196   2.54502   2.54574   2.55469
 Alpha virt. eigenvalues --    2.55604   2.55826   2.56181   2.56240   2.56657
 Alpha virt. eigenvalues --    2.57094   2.58750   2.59306   2.60683   2.61567
 Alpha virt. eigenvalues --    2.62258   2.62544   2.63637   2.64269   2.65202
 Alpha virt. eigenvalues --    2.65701   2.66400   2.67366   2.68019   2.68874
 Alpha virt. eigenvalues --    2.69135   2.69614   2.70164   2.71271   2.71778
 Alpha virt. eigenvalues --    2.72595   2.75710   2.77192   2.77434   2.77554
 Alpha virt. eigenvalues --    2.77616   2.77990   2.78292   2.80978   2.81909
 Alpha virt. eigenvalues --    2.82208   2.83839   2.84630   2.85522   2.85895
 Alpha virt. eigenvalues --    2.86958   2.87676   2.87877   2.88252   2.88686
 Alpha virt. eigenvalues --    2.88979   2.91388   2.91907   2.92539   2.93976
 Alpha virt. eigenvalues --    2.94730   2.96177   2.98376   3.01840   3.02507
 Alpha virt. eigenvalues --    3.02736   3.03126   3.03983   3.04236   3.14168
 Alpha virt. eigenvalues --    3.22883   3.23003   3.23816   3.24086   3.24306
 Alpha virt. eigenvalues --    3.24650   3.25209   3.25365   3.25603   3.25686
 Alpha virt. eigenvalues --    3.26052   3.26741   3.36051   3.36170   3.36291
 Alpha virt. eigenvalues --    3.36628   3.36815   3.37359   3.67174   3.67642
 Alpha virt. eigenvalues --    3.68151   3.68709   3.68817   3.69212   3.90663
 Alpha virt. eigenvalues --    3.91159   3.91387   3.91431   3.91714   3.92269
 Alpha virt. eigenvalues --   37.11904  37.48310  37.78158  49.24897
          Condensed to atoms (all electrons):
 Mulliken charges:
               1
     1  O   -0.277272
     2  C    0.359112
     3  Rh  -0.823343
     4  P    1.124534
     5  N   -0.598856
     6  C    0.065526
     7  C   -0.189791
     8  C   -0.198148
     9  C    0.072117
    10  N   -0.602112
    11  C    0.050247
    12  C   -0.188045
    13  C   -0.195593
    14  C    0.060020
    15  N   -0.621670
    16  C    0.050272
    17  C   -0.172378
    18  C   -0.177731
    19  C    0.032732
    20  P    1.109442
    21  N   -0.607471
    22  C    0.048040
    23  C   -0.188221
    24  C   -0.197284
    25  C    0.058915
    26  N   -0.577438
    27  C    0.023756
    28  C   -0.181638
    29  C   -0.185365
    30  C    0.066110
    31  N   -0.600804
    32  C    0.035178
    33  C   -0.176855
    34  C   -0.190834
    35  C    0.047285
    36  H    0.025792
    37  H    0.151948
    38  H    0.133108
    39  H    0.134445
    40  H    0.205632
    41  H    0.165214
    42  H    0.133508
    43  H    0.135584
    44  H    0.211887
    45  H    0.173240
    46  H    0.127534
    47  H    0.129138
    48  H    0.165481
    49  H    0.168287
    50  H    0.133989
    51  H    0.136700
    52  H    0.202233
    53  H    0.197195
    54  H    0.133011
    55  H    0.130292
    56  H    0.150686
    57  H    0.172397
    58  H    0.129952
    59  H    0.129013
    60  H    0.171298
 Sum of Mulliken charges =  -0.00000
 Mulliken charges with hydrogens summed into heavy atoms:
               1
     1  O   -0.277272
     2  C    0.359112
     3  Rh  -0.797551
     4  P    1.124534
     5  N   -0.598856
     6  C    0.217475
     7  C   -0.056683
     8  C   -0.063703
     9  C    0.277749
    10  N   -0.602112
    11  C    0.215461
    12  C   -0.054537
    13  C   -0.060009
    14  C    0.271907
    15  N   -0.621670
    16  C    0.223513
    17  C   -0.044844
    18  C   -0.048594
    19  C    0.198213
    20  P    1.109442
    21  N   -0.607471
    22  C    0.216327
    23  C   -0.054233
    24  C   -0.060584
    25  C    0.261148
    26  N   -0.577438
    27  C    0.220951
    28  C   -0.048627
    29  C   -0.055073
    30  C    0.216796
    31  N   -0.600804
    32  C    0.207575
    33  C   -0.046903
    34  C   -0.061821
    35  C    0.218583
 Electronic spatial extent (au):  <R**2>=          14054.3584
 Charge=             -0.0000 electrons
 Dipole moment (field-independent basis, Debye):
    X=             -0.2658    Y=             -0.5325    Z=              3.2155  Tot=              3.2701
 Quadrupole moment (field-independent basis, Debye-Ang):
   XX=           -224.9043   YY=           -216.0880   ZZ=           -232.5881
   XY=              0.2444   XZ=              1.6234   YZ=              3.2630
 Traceless Quadrupole moment (field-independent basis, Debye-Ang):
   XX=             -0.3775   YY=              8.4388   ZZ=             -8.0613
   XY=              0.2444   XZ=              1.6234   YZ=              3.2630
 Octapole moment (field-independent basis, Debye-Ang**2):
  XXX=              4.4453  YYY=             13.2692  ZZZ=            -24.7401  XYY=            -17.4613
  XXY=              3.4452  XXZ=             -2.1798  XZZ=             15.7888  YZZ=             -3.4772
  YYZ=            -22.6284  XYZ=            -10.0565
 Hexadecapole moment (field-independent basis, Debye-Ang**3):
 XXXX=          -9728.5001 YYYY=          -4651.5178 ZZZZ=          -4392.8596 XXXY=             74.1255
 XXXZ=           -248.1526 YYYX=            -67.1953 YYYZ=            -33.4298 ZZZX=            122.5411
 ZZZY=             -2.5481 XXYY=          -2317.5549 XXZZ=          -2388.6709 YYZZ=          -1428.4532
 XXYZ=             61.6491 YYXZ=             52.9011 ZZXY=             20.2217
 N-N= 4.699409168989D+03 E-N=-1.443951957601D+04  KE= 2.083040662636D+03
 Unable to Open any file for archive entry.
 1\1\GINC-NODE4\FOpt\RPBE1PBE\GenECP\C25H25N6O1P2Rh1\CLIENT10\26-Mar-20
 24\0\\# opt pbe1pbe/genecp em=gd3bj\\0-2-Ligand-M.xyz\\0,1\O,-1.608686
 669,-3.6472929221,2.0949159872\C,-1.0142364727,-2.74902072,1.701213251
 2\Rh,0.0515564589,-1.3345752755,1.0670207849\P,1.8275004561,-0.0844901
 366,0.4080069667\N,2.8000245648,-0.8385475883,-0.7787779942\C,3.959245
 1819,-0.3513968301,-1.3668598487\C,4.3403064203,-1.2302595771,-2.34098
 91989\C,3.3874997419,-2.2939370403,-2.3639391338\C,2.4562473224,-2.035
 2927562,-1.3988719411\N,2.860569346,0.3290606842,1.708987815\C,3.87093
 81298,1.2830924716,1.737033035\C,4.4607937085,1.2371150522,2.968776903
 1\C,3.8046755038,0.2225926535,3.728482807\C,2.8324257691,-0.3221355315
 ,2.9382632291\N,1.7214835551,1.4805299333,-0.3137488811\C,1.5282553263
 ,1.6954474198,-1.6734906538\C,1.0878340048,2.9782589935,-1.8441253373\
 C,0.9764518672,3.5721383986,-0.5530944988\C,1.3514018232,2.634661309,0
 .3689204426\P,-1.5850471378,0.1855225274,0.7163320403\N,-1.6261068839,
 1.4911592289,1.8233320676\C,-2.600614148,2.469619388,1.9714045278\C,-2
 .2295911765,3.2832226093,3.005358612\C,-0.9963206148,2.7884954266,3.52
 70655782\C,-0.6504122304,1.6890588324,2.7927355119\N,-1.5701610557,0.8
 864853191,-0.8525284536\C,-1.221486804,0.0950750089,-1.943880044\C,-1.
 6171521788,0.7402273928,-3.082922119\C,-2.2230918148,1.9695966074,-2.6
 885857816\C,-2.1928907085,2.0306907115,-1.3222523054\N,-3.2587048149,-
 0.2415898394,0.8096896639\C,-3.8828365708,-0.6096786003,1.9904090921\C
 ,-5.0744400985,-1.20477868,1.6719542495\C,-5.1786957864,-1.2231842857,
 0.2505886675\C,-4.0478629905,-0.640824364,-0.257031621\H,1.2313326453,
 -2.3996609379,1.3056413774\H,4.3977719437,0.5774818173,-1.0385939145\H
 ,5.2149901044,-1.1306646763,-2.9688270993\H,3.3985152686,-3.1591322283
 ,-3.0117639444\H,1.5878047489,-2.5820127451,-1.0596014274\H,4.04001158
 18,1.9316221665,0.8917846275\H,5.2746041789,1.8684588402,3.2978950906\
 H,4.0266401984,-0.0713246085,4.7447515974\H,2.1223096161,-1.1197782015
 ,3.1047002258\H,1.7350738039,0.9143736343,-2.3882748986\H,0.870208879,
 3.4438050594,-2.7945434744\H,0.6697345731,4.5837876362,-0.3266636418\H
 ,1.4098691296,2.6861420646,1.444447792\H,-3.4894550666,2.4554244879,1.
 3593777727\H,-2.7900362332,4.1343297638,3.3668916492\H,-0.4375040127,3
 .189247897,4.3611068493\H,0.1830424672,1.004545598,2.8717598306\H,-0.7
 320266967,-0.8562697549,-1.7827807487\H,-1.4671373953,0.3847947393,-4.
 0927621442\H,-2.6159195469,2.736197593,-3.3423094001\H,-2.512084824,2.
 8023149133,-0.6405341218\H,-3.4279856695,-0.3871447319,2.9448931107\H,
 -5.8037311596,-1.5715817415,2.380747897\H,-6.0044572208,-1.6050677001,
 -0.3333302051\H,-3.7359742777,-0.4504418755,-1.2738024004\\Version=ES6
 4L-G16RevC.01\State=1-A\HF=-2162.9713383\RMSD=6.019e-09\RMSF=9.504e-06
 \Dipole=0.0753694,1.220341,-0.400452\Quadrupole=-0.2394469,-5.016687,5
 .2561339,-0.8451927,0.592097,4.1911747\PG=C01 [X(C25H25N6O1P2Rh1)]\\@
 The archive entry for this job was punched.


 DIATOMIC MOLECULES ARE PECULIAR BECAUSE THEY ONLY HAVE TWO ENDS,
 AND THESE ENDS ARE VERY CLOSE TOGETHER.
 KLAUS RUEDENBERG, REV.MOD.PHYS. PG 176, 32, (1960)
 Job cpu time:       0 days 11 hours  4 minutes 28.6 seconds.
 Elapsed time:       0 days  0 hours 41 minutes 41.9 seconds.
 File lengths (MBytes):  RWF=    252 Int=      0 D2E=      0 Chk=     34 Scr=      1
 Normal termination of Gaussian 16 at Tue Mar 26 16:15:43 2024.
