      -----------------------------------------------------------      
     |                   =====================                   |     
     |                           x T B                           |     
     |                   =====================                   |     
     |                         S. Grimme                         |     
     |          Mulliken Center for Theoretical Chemistry        |     
     |                    University of Bonn                     |     
      -----------------------------------------------------------      

   * xtb version 6.6.0 (8843059) compiled by 'stahn@majestix' on 2023-02-09

   xtb is free software: you can redistribute it and/or modify it under
   the terms of the GNU Lesser General Public License as published by
   the Free Software Foundation, either version 3 of the License, or
   (at your option) any later version.
   
   xtb is distributed in the hope that it will be useful,
   but WITHOUT ANY WARRANTY; without even the implied warranty of
   MERCHANTABILITY or FITNESS FOR A PARTICULAR PURPOSE.  See the
   GNU Lesser General Public License for more details.
   
   Cite this work as:
   * C. Bannwarth, E. Caldeweyher, S. Ehlert, A. Hansen, P. Pracht,
     J. Seibert, S. Spicher, S. Grimme, WIREs Comput. Mol. Sci., 2020, 11,
     e01493. DOI: 10.1002/wcms.1493
   
   for GFN2-xTB:
   * C. Bannwarth, S. Ehlert and S. Grimme., J. Chem. Theory Comput., 2019,
     15, 1652-1671. DOI: 10.1021/acs.jctc.8b01176
   for GFN1-xTB:
   * S. Grimme, C. Bannwarth, P. Shushkov, J. Chem. Theory Comput., 2017,
     13, 1989-2009. DOI: 10.1021/acs.jctc.7b00118
   for GFN0-xTB:
   * P. Pracht, E. Caldeweyher, S. Ehlert, S. Grimme, ChemRxiv, 2019, preprint.
     DOI: 10.26434/chemrxiv.8326202.v1
   for GFN-FF:
   * S. Spicher and S. Grimme, Angew. Chem. Int. Ed., 2020, 59, 15665-15673.
     DOI: 10.1002/anie.202004239
   
   for ALPB and GBSA implicit solvation:
   * S. Ehlert, M. Stahn, S. Spicher, S. Grimme, J. Chem. Theory Comput.,
     2021, 17, 4250-4261. DOI: 10.1021/acs.jctc.1c00471
   
   for DFT-D4:
   * E. Caldeweyher, C. Bannwarth and S. Grimme, J. Chem. Phys., 2017,
     147, 034112. DOI: 10.1063/1.4993215
   * E. Caldeweyher, S. Ehlert, A. Hansen, H. Neugebauer, S. Spicher,
     C. Bannwarth and S. Grimme, J. Chem. Phys., 2019, 150, 154122.
     DOI: 10.1063/1.5090222
   * E. Caldeweyher, J.-M. Mewes, S. Ehlert and S. Grimme, Phys. Chem. Chem. Phys.
     2020, 22, 8499-8512. DOI: 10.1039/D0CP00502A
   
   for sTDA-xTB:
   * S. Grimme and C. Bannwarth, J. Chem. Phys., 2016, 145, 054103.
     DOI: 10.1063/1.4959605
   
   in the mass-spec context:
   * V. Asgeirsson, C. Bauer and S. Grimme, Chem. Sci., 2017, 8, 4879.
     DOI: 10.1039/c7sc00601b
   * J. Koopman and S. Grimme, ACS Omega 2019, 4, 12, 15120-15133.
     DOI: 10.1021/acsomega.9b02011
   
   for metadynamics refer to:
   * S. Grimme, J. Chem. Theory Comput., 2019, 155, 2847-2862
     DOI: 10.1021/acs.jctc.9b00143
   
   for SPH calculations refer to:
   * S. Spicher and S. Grimme, J. Chem. Theory Comput., 2021, 17, 1701-1714
     DOI: 10.1021/acs.jctc.0c01306
   
   with help from (in alphabetical order)
   P. Atkinson, C. Bannwarth, F. Bohle, G. Brandenburg, E. Caldeweyher
   M. Checinski, S. Dohm, S. Ehlert, S. Ehrlich, I. Gerasimov, C. Hölzer
   A. Katbashev, J. Koopman, C. Lavigne, S. Lehtola, F. März, M. Müller,
   F. Musil, H. Neugebauer, J. Pisarek, C. Plett, P. Pracht, F. Pultar,
   J. Seibert, P. Shushkov, S. Spicher, M. Stahn, M. Steiner, T. Strunk,
   J. Stückrath, T. Rose, and J. Unsleber
   
 * started run on 2024/03/26 at 13:19:46.587     

           -------------------------------------------------
          |                Calculation Setup                |
           -------------------------------------------------

          program call               : xtb 0-0-olefin.xyz --input md_param.inp --omd --gfn 0 --namespace ./0-0-olefin
          hostname                   : node4
          calculation namespace      : ./0-0-olefin
          coordinate file            : 0-0-olefin.xyz
          omp threads                :                     4

   ID    Z sym.   atoms
    1    6 C      1-6
    2    1 H      7-18

           -------------------------------------------------
          |                 G F N 0 - x T B                 |
           -------------------------------------------------

        Reference                      10.26434/chemrxiv.8326202.v1
      * Hamiltonian:
        H0-scaling (s, p, d)           2.000000    2.486800    2.270000
        zeta-weighting                 1.000000
      * Dispersion:
        s8                             2.850000
        a1                             0.800000
        a2                             4.600000
        s9                             0.000000
      * Repulsion:
        kExp                           1.500000
        rExp                           1.000000
      * Coulomb:
        alpha                          0.000000
        third order                    atomic
        anisotropic                    false
      * Polar bond correction:
        rad-shift                      0.053700
        strength                      -0.012900
        en-exp                         3.484700
        en-scale                       0.509700


          ...................................................
          :                      SETUP                      :
          :.................................................:
          :  # basis functions                  48          :
          :  # atomic orbitals                  48          :
          :  # shells                           36          :
          :  # electrons                        36          :
          :  electronic temp.          300.0000000     K    :
          :  accuracy                    1.0000000          :
          :  -> integral cutoff          0.2500000E+02      :
          :  -> integral neglect         0.1000000E-07      :
          ...................................................
  Checking positiv definite overlap ...  done.
 

         #    Occupation            Energy/Eh            Energy/eV
      -------------------------------------------------------------
         1        2.0000           -0.6420047             -17.4698
       ...           ...                  ...                  ...
        12        2.0000           -0.5186718             -14.1138
        13        2.0000           -0.5015041             -13.6466
        14        2.0000           -0.4934600             -13.4277
        15        2.0000           -0.4845193             -13.1844
        16        2.0000           -0.4760845             -12.9549
        17        2.0000           -0.4686826             -12.7535
        18        2.0000           -0.4395082             -11.9596 (HOMO)
        19                         -0.2546695              -6.9299 (LUMO)
        20                         -0.1663174              -4.5257
        21                         -0.1512987              -4.1170
        22                         -0.1364555              -3.7131
        23                         -0.1329805              -3.6186
       ...                                ...                  ...
        48                          0.5243712              14.2689
      -------------------------------------------------------------
                  HL-Gap            0.1848387 Eh            5.0297 eV
             Fermi-level            0.0000000 Eh            0.0000 eV

 EHT (total)                   0 d,  0 h,  0 min,  0.005 sec
 EHT setup                      ...        0 min,  0.000 sec (  1.564%)
 Coordination number            ...        0 min,  0.000 sec (  1.123%)
 EEQ model density              ...        0 min,  0.000 sec (  1.060%)
 D4 Dispersion                  ...        0 min,  0.001 sec ( 25.386%)
 Integral evaluation            ...        0 min,  0.000 sec (  8.147%)
 Cholesky factorization         ...        0 min,  0.000 sec (  0.924%)
 Zeroth order Hamiltonian       ...        0 min,  0.002 sec ( 43.417%)
 Gradient calculation           ...        0 min,  0.001 sec ( 16.252%)

         :::::::::::::::::::::::::::::::::::::::::::::::::::::
         ::                     SUMMARY                     ::
         :::::::::::::::::::::::::::::::::::::::::::::::::::::
         :: total energy             -19.331974010283 Eh    ::
         :: gradient norm              0.099304582234 Eh/a0 ::
         :: HOMO-LUMO gap              5.029718328109 eV    ::
         ::.................................................::
         :: H0 energy                -19.622936817343 Eh    ::
         :: repulsion energy           0.317654329690 Eh    ::
         :: electrostat energy        -0.021409932599 Eh    ::
         :: -> Gsolv                   0.000000000000 Eh    ::
         ::    -> Gsasa                0.000000000000 Eh    ::
         ::    -> Gshift               0.000000000000 Eh    ::
         :: dispersion energy         -0.005281590031 Eh    ::
         :: short-range corr.          0.000000000000 Eh    ::
         :: add. restraining           0.000000000000 Eh    ::
         :: total charge              -0.000000000000 e     ::
         :::::::::::::::::::::::::::::::::::::::::::::::::::::

      ----------------------------------------------------------- 
     |                   =====================                   |
     |                        A N C O P T                        |
     |                   =====================                   |
     |               Approximate Normal Coordinate               |
     |                Rational Function Optimizer                |
      ----------------------------------------------------------- 

          ...................................................
          :                      SETUP                      :
          :.................................................:
          :   optimization level             loose          :
          :   max. optcycles                   200          :
          :   ANC micro-cycles                  20          :
          :   degrees of freedom                48          :
          :.................................................:
          :   RF solver                   davidson          :
          :   write xtbopt.log                true          :
          :   linear?                        false          :
          :   energy convergence         0.5000000E-04 Eh   :
          :   grad. convergence          0.4000000E-02 Eh/α :
          :   maxmium RF displ.          1.0000000          :
          :   Hlow (freq-cutoff)         0.1000000E-01      :
          :   Hmax (freq-cutoff)         5.0000000          :
          :   S6 in model hess.         20.0000000          :
          ...................................................

generating ANC from model Hessian ...
Using Lindh-Hessian (1995)
 Shifting diagonal of input Hessian by   8.299295226322887E-003
 Lowest  eigenvalues of input Hessian
    0.000000    0.000000    0.000000    0.000000    0.000000    0.000000
    0.010000    0.011191    0.013111    0.015860    0.017587    0.021909
    0.026389    0.033067    0.038104    0.049726    0.051251    0.060751
 Highest eigenvalues
    1.175547    1.221661    1.324475    1.424726    1.527600    1.931500
 

........................................................................
.............................. CYCLE    1 ..............................
........................................................................
     Diagonalization            ...        0 min,  0.000 sec
 * total energy  :   -19.3319740 Eh     change        0.0000000E+00 Eh
   gradient norm :     0.0993046 Eh/α   predicted     0.0000000E+00 (    NaN%)
   displ. norm   :     0.1977842 α      lambda       -0.1090344E-01
   maximum displ.:     0.0780295 α      in ANC's #6, #26, #22, ...

........................................................................
.............................. CYCLE    2 ..............................
........................................................................
     Diagonalization            ...        0 min,  0.000 sec
 * total energy  :   -19.3394411 Eh     change       -0.7467082E-02 Eh
   gradient norm :     0.0390856 Eh/α   predicted    -0.5664983E-02 ( -24.13%)
   displ. norm   :     0.1854655 α      lambda       -0.3043903E-02
   maximum displ.:     0.1211842 α      in ANC's #6, #4, #9, ...

........................................................................
.............................. CYCLE    3 ..............................
........................................................................
     Diagonalization            ...        0 min,  0.000 sec
 * total energy  :   -19.3411583 Eh     change       -0.1717251E-02 Eh
   gradient norm :     0.0069126 Eh/α   predicted    -0.1574306E-02 (  -8.32%)
   displ. norm   :     0.1377257 α      lambda       -0.3998643E-03
   maximum displ.:     0.0908826 α      in ANC's #6, #4, #1, ...

........................................................................
.............................. CYCLE    4 ..............................
........................................................................
     Diagonalization            ...        0 min,  0.000 sec
 * total energy  :   -19.3414429 Eh     change       -0.2845187E-03 Eh
   gradient norm :     0.0049697 Eh/α   predicted    -0.2037245E-03 ( -28.40%)
   displ. norm   :     0.2397592 α      lambda       -0.4189769E-03
   maximum displ.:     0.1628905 α      in ANC's #6, #4, #1, ...

........................................................................
.............................. CYCLE    5 ..............................
........................................................................
     Diagonalization            ...        0 min,  0.000 sec
 * total energy  :   -19.3417200 Eh     change       -0.2771480E-03 Eh
   gradient norm :     0.0077056 Eh/α   predicted    -0.2215269E-03 ( -20.07%)
   displ. norm   :     0.2441799 α      lambda       -0.3278277E-03
   maximum displ.:     0.1422369 α      in ANC's #6, #5, #1, ...

........................................................................
.............................. CYCLE    6 ..............................
........................................................................
     Diagonalization            ...        0 min,  0.000 sec
 * total energy  :   -19.3419758 Eh     change       -0.2558380E-03 Eh
   gradient norm :     0.0104247 Eh/α   predicted    -0.1736859E-03 ( -32.11%)
   displ. norm   :     0.3666710 α      lambda       -0.5934016E-03
   maximum displ.:     0.1850532 α      in ANC's #6, #5, #1, ...

........................................................................
.............................. CYCLE    7 ..............................
........................................................................
     Diagonalization            ...        0 min,  0.000 sec
 * total energy  :   -19.3424064 Eh     change       -0.4305836E-03 Eh
   gradient norm :     0.0144273 Eh/α   predicted    -0.3365905E-03 ( -21.83%)
   displ. norm   :     0.2937950 α      lambda       -0.7656106E-03
   maximum displ.:     0.1673155 α      in ANC's #1, #5, #6, ...

........................................................................
.............................. CYCLE    8 ..............................
........................................................................
     Diagonalization            ...        0 min,  0.000 sec
 * total energy  :   -19.3429435 Eh     change       -0.5371102E-03 Eh
   gradient norm :     0.0133222 Eh/α   predicted    -0.4158463E-03 ( -22.58%)
   displ. norm   :     0.4510760 α      lambda       -0.7786360E-03
   maximum displ.:     0.2622750 α      in ANC's #1, #5, #3, ...

........................................................................
.............................. CYCLE    9 ..............................
........................................................................
     Diagonalization            ...        0 min,  0.000 sec
 * total energy  :   -19.3433398 Eh     change       -0.3962387E-03 Eh
   gradient norm :     0.0191715 Eh/α   predicted    -0.4685320E-03 (  18.24%)
   displ. norm   :     0.2214240 α      lambda       -0.1155269E-02
   maximum displ.:     0.1586009 α      in ANC's #1, #2, #3, ...

........................................................................
.............................. CYCLE   10 ..............................
........................................................................
     Diagonalization            ...        0 min,  0.000 sec
 * total energy  :   -19.3436756 Eh     change       -0.3358057E-03 Eh
   gradient norm :     0.0132489 Eh/α   predicted    -0.6059575E-03 (  80.45%)
   displ. norm   :     0.3268696 α      lambda       -0.7738550E-03
   maximum displ.:     0.2060166 α      in ANC's #1, #5, #6, ...

........................................................................
.............................. CYCLE   11 ..............................
........................................................................
     Diagonalization            ...        0 min,  0.000 sec
 * total energy  :   -19.3440989 Eh     change       -0.4233294E-03 Eh
   gradient norm :     0.0084745 Eh/α   predicted    -0.4282660E-03 (   1.17%)
   displ. norm   :     0.1720958 α      lambda       -0.1894967E-03
   maximum displ.:     0.1258377 α      in ANC's #1, #5, #3, ...

........................................................................
.............................. CYCLE   12 ..............................
........................................................................
     Diagonalization            ...        0 min,  0.000 sec
 * total energy  :   -19.3442254 Eh     change       -0.1265143E-03 Eh
   gradient norm :     0.0068164 Eh/α   predicted    -0.9755560E-04 ( -22.89%)
   displ. norm   :     0.1625592 α      lambda       -0.2514919E-03
   maximum displ.:     0.1295874 α      in ANC's #1, #3, #4, ...

........................................................................
.............................. CYCLE   13 ..............................
........................................................................
     Diagonalization            ...        0 min,  0.000 sec
 * total energy  :   -19.3443593 Eh     change       -0.1339051E-03 Eh
   gradient norm :     0.0051322 Eh/α   predicted    -0.1290705E-03 (  -3.61%)
   displ. norm   :     0.3203761 α      lambda       -0.1889487E-03
   maximum displ.:     0.2361963 α      in ANC's #1, #3, #5, ...

........................................................................
.............................. CYCLE   14 ..............................
........................................................................
     Diagonalization            ...        0 min,  0.000 sec
 * total energy  :   -19.3444413 Eh     change       -0.8197418E-04 Eh
   gradient norm :     0.0071098 Eh/α   predicted    -0.1041668E-03 (  27.07%)
   displ. norm   :     0.0551409 α      lambda       -0.1204934E-03
   maximum displ.:     0.0274676 α      in ANC's #2, #4, #1, ...

........................................................................
.............................. CYCLE   15 ..............................
........................................................................
     Diagonalization            ...        0 min,  0.000 sec
 * total energy  :   -19.3445158 Eh     change       -0.7447746E-04 Eh
   gradient norm :     0.0032801 Eh/α   predicted    -0.6043113E-04 ( -18.86%)
   displ. norm   :     0.1334383 α      lambda       -0.6755662E-04
   maximum displ.:     0.0948314 α      in ANC's #1, #4, #3, ...

........................................................................
.............................. CYCLE   16 ..............................
........................................................................
     Diagonalization            ...        0 min,  0.000 sec
 * total energy  :   -19.3445603 Eh     change       -0.4454489E-04 Eh
   gradient norm :     0.0017403 Eh/α   predicted    -0.3437806E-04 ( -22.82%)
   displ. norm   :     0.2762035 α      lambda       -0.4151965E-04
   maximum displ.:     0.1965345 α      in ANC's #1, #4, #3, ...

   *** GEOMETRY OPTIMIZATION CONVERGED AFTER 16 ITERATIONS ***

------------------------------------------------------------------------
 total energy gain   :        -0.0125863 Eh       -7.8980 kcal/mol
 total RMSD          :         0.6895829 a0        0.3649 Å
 total power (kW/mol):        -2.0653364 (step) -998.9865 (real)
------------------------------------------------------------------------

 ANCopt (total)                0 d,  0 h,  0 min,  0.033 sec
 optimizer setup                ...        0 min,  0.000 sec (  0.949%)
 model hessian                  ...        0 min,  0.006 sec ( 16.790%)
 ANC generation                 ...        0 min,  0.001 sec (  1.548%)
 coordinate transformation      ...        0 min,  0.000 sec (  0.244%)
 single point calculation       ...        0 min,  0.024 sec ( 71.652%)
 optimization log               ...        0 min,  0.001 sec (  2.399%)
 hessian update                 ...        0 min,  0.000 sec (  0.285%)
 rational function              ...        0 min,  0.002 sec (  4.753%)

================
 final structure:
================
18
 xtb: 6.6.0 (8843059)
C           -2.62907863180577        0.79926955348825        1.02606449420877
C           -1.35113068933096        0.79595808319038        0.71386547088897
C           -0.83284283608036        0.37573474516020       -0.62537853104331
C           -0.02523070874961       -0.92292868825668       -0.53921581797546
C            1.28947720649109       -0.76293027556221        0.21716243972299
C            2.32012289031719        0.00625837799864       -0.59422752057286
H           -3.38112113067787        0.51413963779761        0.29995453661439
H           -2.99277558356662        1.08999230879817        2.00365834086917
H           -0.59929711343777        1.08365736761902        1.44207007176033
H           -1.67860221431255        0.21693349268766       -1.29738784146411
H           -0.19829344657769        1.16220723743804       -1.04065730690009
H            0.19673688448357       -1.26656435209121       -1.55110760539498
H           -0.63959688431403       -1.67698446105098       -0.04463042318199
H            1.11122245527922       -0.24396147143194        1.15889393406836
H            1.68883880756458       -1.75226208635599        0.44082033977671
H            1.94190831469316        0.99667700031074       -0.84596011237249
H            3.24150655322546        0.11473055598270       -0.02380741119604
H            2.53815612679902       -0.52992602572250       -1.51808605780817
 
 Bond Distances (Angstroems)
 ---------------------------
C1-C2=1.3155         C1-H7=1.0836         C1-H8=1.0828         C2-C1=1.3155         C2-C3=1.4963         C2-H9=1.0855         
C3-C2=1.4963         C3-C4=1.5317         C3-H10=1.0918        C3-H11=1.0925        C4-C3=1.5317         C4-C5=1.5252         
C4-H12=1.0915        C4-H13=1.0912        C5-C4=1.5252         C5-C6=1.5206         C5-H14=1.0899        C5-H15=1.0901        
C6-C5=1.5206         C6-H16=1.0897        C6-H17=1.0891        C6-H18=1.0902        H7-C1=1.0836         H8-C1=1.0828         
H9-C2=1.0855         H10-C3=1.0918        H11-C3=1.0925        H12-C4=1.0915        H13-C4=1.0912        H14-C5=1.0899        
H15-C5=1.0901        H16-C6=1.0897        H17-C6=1.0891        H18-C6=1.0902        
 C  H  Rav=1.0890 sigma=0.0031  Rmin=1.0828  Rmax=1.0925    12
 C  C  Rav=1.4779 sigma=0.0820  Rmin=1.3155  Rmax=1.5317     5
 
 selected bond angles (degree)
 --------------------
H7-C1-C2=120.97                H8-C1-C2=122.77                H8-C1-H7=116.27                C3-C2-C1=123.34                
H9-C2-C1=120.86                H9-C2-C3=115.78                C4-C3-C2=111.74                H10-C3-C2=108.87               
H10-C3-C4=108.65               H11-C3-C2=109.83               H11-C3-C4=108.99               H11-C3-H10=108.70              
C5-C4-C3=113.17                H12-C4-C3=108.78               H12-C4-C5=108.51               H13-C4-C3=108.33               
H13-C4-C5=109.45               H13-C4-H12=108.49              C6-C5-C4=111.88                H14-C5-C4=109.72               
H14-C5-C6=109.33               H15-C5-C4=108.80               H15-C5-C6=108.68               H15-C5-H14=108.35              
H16-C6-C5=110.35               H17-C6-C5=110.14               H17-C6-H16=108.91              H18-C6-C5=109.81               
H18-C6-H16=108.70              H18-C6-H17=108.88              
 
 selected dihedral angles (degree)
 ---------------------------------
C3-C2-C1-H7=358.42            C3-C2-C1-H8=178.98            H9-C2-C1-H7=179.89            H9-C2-C1-H8=  0.45            
C4-C3-C2-C1=247.47            C4-C3-C2-H9= 66.06            H10-C3-C2-C1=  7.47           H10-C3-C2-H9=186.07           
H11-C3-C2-C1=126.38           H11-C3-C2-H9=304.98           C5-C4-C3-C2=292.04            C5-C4-C3-H10=171.91           
C5-C4-C3-H11= 53.61           H12-C4-C3-C2=171.36           H12-C4-C3-H10= 51.22          H12-C4-C3-H11=292.92          
H13-C4-C3-C2= 53.61           H13-C4-C3-H10=293.47          H13-C4-C3-H11=175.17          C6-C5-C4-C3=286.91            
C6-C5-C4-H12= 47.75           C6-C5-C4-H13=165.98           H14-C5-C4-C3= 48.44           H14-C5-C4-H12=169.28          
H14-C5-C4-H13=287.51          H15-C5-C4-C3=166.82           H15-C5-C4-H12=287.66          H15-C5-C4-H13= 45.89          
H16-C6-C5-C4= 59.00           H16-C6-C5-H14=297.25          H16-C6-C5-H15=179.17          H17-C6-C5-C4=179.29           
H17-C6-C5-H14= 57.53          H17-C6-C5-H15=299.45          H18-C6-C5-C4=299.19           H18-C6-C5-H14=177.43          
H18-C6-C5-H15= 59.35          
           -------------------------------------------------
          |                Final Singlepoint                |
           -------------------------------------------------

          ...................................................
          :                      SETUP                      :
          :.................................................:
          :  # basis functions                  48          :
          :  # atomic orbitals                  48          :
          :  # shells                           36          :
          :  # electrons                        36          :
          :  electronic temp.          300.0000000     K    :
          :  accuracy                    1.0000000          :
          :  -> integral cutoff          0.2500000E+02      :
          :  -> integral neglect         0.1000000E-07      :
          ...................................................
  Checking positiv definite overlap ...  done.
 

         #    Occupation            Energy/Eh            Energy/eV
      -------------------------------------------------------------
         1        2.0000           -0.6421273             -17.4732
       ...           ...                  ...                  ...
        12        2.0000           -0.5201357             -14.1536
        13        2.0000           -0.5045760             -13.7302
        14        2.0000           -0.4968862             -13.5210
        15        2.0000           -0.4844978             -13.1839
        16        2.0000           -0.4774819             -12.9929
        17        2.0000           -0.4735654             -12.8864
        18        2.0000           -0.4401803             -11.9779 (HOMO)
        19                         -0.2526162              -6.8740 (LUMO)
        20                         -0.1636350              -4.4527
        21                         -0.1520168              -4.1366
        22                         -0.1381954              -3.7605
        23                         -0.1353783              -3.6838
       ...                                ...                  ...
        48                          0.5518200              15.0158
      -------------------------------------------------------------
                  HL-Gap            0.1875641 Eh            5.1039 eV
             Fermi-level            0.0000000 Eh            0.0000 eV

 EHT (total)                   0 d,  0 h,  0 min,  0.002 sec
 EHT setup                      ...        0 min,  0.000 sec (  1.938%)
 Coordination number            ...        0 min,  0.000 sec (  1.604%)
 EEQ model density              ...        0 min,  0.000 sec (  2.192%)
 D4 Dispersion                  ...        0 min,  0.000 sec (  5.400%)
 Integral evaluation            ...        0 min,  0.000 sec ( 21.585%)
 Cholesky factorization         ...        0 min,  0.000 sec (  1.128%)
 Zeroth order Hamiltonian       ...        0 min,  0.000 sec ( 17.662%)
 Gradient calculation           ...        0 min,  0.001 sec ( 43.567%)

         :::::::::::::::::::::::::::::::::::::::::::::::::::::
         ::                     SUMMARY                     ::
         :::::::::::::::::::::::::::::::::::::::::::::::::::::
         :: total energy             -19.344560331566 Eh    ::
         :: gradient norm              0.001743204717 Eh/a0 ::
         :: HOMO-LUMO gap              5.103878888069 eV    ::
         ::.................................................::
         :: H0 energy                -19.652911073185 Eh    ::
         :: repulsion energy           0.336096896765 Eh    ::
         :: electrostat energy        -0.022527735078 Eh    ::
         :: -> Gsolv                   0.000000000000 Eh    ::
         ::    -> Gsasa                0.000000000000 Eh    ::
         ::    -> Gshift               0.000000000000 Eh    ::
         :: dispersion energy         -0.005218420068 Eh    ::
         :: short-range corr.          0.000000000000 Eh    ::
         :: add. restraining           0.000000000000 Eh    ::
         :: total charge               0.000000000000 e     ::
         :::::::::::::::::::::::::::::::::::::::::::::::::::::

           -------------------------------------------------
          |                Property Printout                |
           -------------------------------------------------

    * Orbital Energies and Occupations

         #    Occupation            Energy/Eh            Energy/eV
      -------------------------------------------------------------
         1        2.0000           -0.6421273             -17.4732
       ...           ...                  ...                  ...
         6        2.0000           -0.5886187             -16.0171
         7        2.0000           -0.5664882             -15.4149
         8        2.0000           -0.5579695             -15.1831
         9        2.0000           -0.5457661             -14.8511
        10        2.0000           -0.5335889             -14.5197
        11        2.0000           -0.5212922             -14.1851
        12        2.0000           -0.5201357             -14.1536
        13        2.0000           -0.5045760             -13.7302
        14        2.0000           -0.4968862             -13.5210
        15        2.0000           -0.4844978             -13.1839
        16        2.0000           -0.4774819             -12.9929
        17        2.0000           -0.4735654             -12.8864
        18        2.0000           -0.4401803             -11.9779 (HOMO)
        19                         -0.2526162              -6.8740 (LUMO)
        20                         -0.1636350              -4.4527
        21                         -0.1520168              -4.1366
        22                         -0.1381954              -3.7605
        23                         -0.1353783              -3.6838
        24                         -0.1181538              -3.2151
        25                         -0.1045205              -2.8441
        26                         -0.1016674              -2.7665
        27                         -0.0989132              -2.6916
        28                         -0.0847053              -2.3049
        29                         -0.0720437              -1.9604
       ...                                ...                  ...
        48                          0.5518200              15.0158
      -------------------------------------------------------------
                  HL-Gap            0.1875641 Eh            5.1039 eV
             Fermi-level            0.0000000 Eh            0.0000 eV

     #   Z          covCN         q      C6AA      α(0)
     1   6 C        2.837    -0.352    40.143    10.350
     2   6 C        2.886    -0.082    31.666     9.197
     3   6 C        3.807    -0.102    25.113     7.221
     4   6 C        3.805    -0.159    26.376     7.401
     5   6 C        3.801    -0.095    24.967     7.201
     6   6 C        3.752    -0.367    31.780     8.135
     7   1 H        0.925     0.141     1.453     1.885
     8   1 H        0.925     0.138     1.476     1.900
     9   1 H        0.925     0.091     1.867     2.136
    10   1 H        0.924     0.071     2.070     2.250
    11   1 H        0.924     0.070     2.090     2.261
    12   1 H        0.924     0.076     2.019     2.222
    13   1 H        0.924     0.083     1.946     2.181
    14   1 H        0.925     0.076     2.018     2.221
    15   1 H        0.925     0.067     2.116     2.275
    16   1 H        0.925     0.117     1.636     2.000
    17   1 H        0.925     0.110     1.695     2.036
    18   1 H        0.925     0.115     1.658     2.014

 Mol. C6AA /au·bohr⁶  :       2392.696384
 Mol. C8AA /au·bohr⁸  :      53938.120093
 Mol. α(0) /au        :         74.886319


Wiberg/Mayer (AO) data.
largest (>0.10) Wiberg bond orders for each atom

 ---------------------------------------------------------------------------
     #   Z sym  total        # sym  WBO       # sym  WBO       # sym  WBO
 ---------------------------------------------------------------------------
     1   6 C    3.990 --     2 C    1.986     8 H    0.978     7 H    0.975
     2   6 C    3.984 --     1 C    1.986     3 C    1.026     9 H    0.969
     3   6 C    3.990 --     2 C    1.026     4 C    0.993    10 H    0.975
                            11 H    0.963
     4   6 C    3.989 --     5 C    1.013     3 C    0.993    13 H    0.978
                            12 H    0.977
     5   6 C    3.990 --     6 C    1.026     4 C    1.013    15 H    0.979
                            14 H    0.974
     6   6 C    3.981 --     5 C    1.026    17 H    0.984    18 H    0.982
                            16 H    0.978
     7   1 H    0.985 --     1 C    0.975
     8   1 H    0.988 --     1 C    0.978
     9   1 H    0.983 --     2 C    0.969
    10   1 H    0.977 --     3 C    0.975
    11   1 H    0.981 --     3 C    0.963
    12   1 H    0.978 --     4 C    0.977
    13   1 H    0.982 --     4 C    0.978
    14   1 H    0.978 --     5 C    0.974
    15   1 H    0.983 --     5 C    0.979
    16   1 H    0.979 --     6 C    0.978
    17   1 H    0.982 --     6 C    0.984
    18   1 H    0.980 --     6 C    0.982
 ---------------------------------------------------------------------------

Topologies differ in total number of bonds
Writing topology from bond orders to xtbtopo.mol

 dipole moment from electron density (au)
     X       Y       Z   
   0.1595  -0.0433  -0.1125  total (Debye):    0.508

           -------------------------------------------------
          |                Geometry Summary                 |
           -------------------------------------------------

      molecular mass/u    :       84.1597044
   center of mass at/Å    :       -0.1606344       0.0380918       0.0166040
  moments of inertia/u·Å² :        0.6042711E+02   0.3056352E+03   0.3135485E+03
rotational constants/cm⁻¹ :        0.2789746E+00   0.5515605E-01   0.5376403E-01

 * 16 selected distances

     #   Z          #   Z                                           value/Å
     1   6 C        2   6 C                                       1.3155343
     3   6 C        4   6 C                                       1.5317273 (max)
     4   6 C        5   6 C                                       1.5251770
     5   6 C        6   6 C                                       1.5206038
     1   6 C        7   1 H                                       1.0835603
     1   6 C        8   1 H                                       1.0828135 (min)
     2   6 C        9   1 H                                       1.0854984
     3   6 C       10   1 H                                       1.0918441
     3   6 C       11   1 H                                       1.0925423
     4   6 C       12   1 H                                       1.0914579
     4   6 C       13   1 H                                       1.0911741
     5   6 C       14   1 H                                       1.0899366
     5   6 C       15   1 H                                       1.0900872
     6   6 C       16   1 H                                       1.0896535
     6   6 C       17   1 H                                       1.0890791
     6   6 C       18   1 H                                       1.0902050

 * 2 distinct bonds (by element types)

   Z      Z             #   av. dist./Å        max./Å        min./Å
   1 H    6 C          12     1.0889877     1.0925423     1.0828135
   6 C    6 C           4     1.4732606     1.5317273     1.3155343


optimized geometry written to: xtbopt.xyz


           -------------------------------------------------
          | TOTAL ENERGY              -19.344560331566 Eh   |
          | GRADIENT NORM               0.001743204717 Eh/α |
          | HOMO-LUMO GAP               5.103878888069 eV   |
           -------------------------------------------------
           ------------------------------------------------- 
          |               Molecular Dynamics                |
           ------------------------------------------------- 
 trajectories on xtb.trj or xtb.trj.<n>
 
 MD time /ps        :  100.00
 dt /fs             :    1.00
 SCC accuracy       :    2.00
 temperature /K     :  400.00
 max steps          :100000
 block length (av.) :  5000
 dumpstep(trj) /fs  :  100.00   100
 dumpstep(coords)/fs: 1000.00  1000
 H atoms mass (amu) :     1
 # deg. of freedom  :    42
 SHAKE on. # bonds  :          12  all: F
 Berendsen THERMOSTAT on
         time (ps)    <Epot>      Ekin   <T>   T     Etot
      0    0.00      0.00000   0.0798    0.    0.   -19.26476
est. speed in wall clock h for 100 ps :  0.04
    200    0.20    -19.22772   0.0280  364.  421.   -19.30002
    400    0.40    -19.27521   0.0231  364.  347.   -19.29971
    600    0.60    -19.29110   0.0230  368.  345.   -19.29619
    800    0.80    -19.29805   0.0219  359.  329.   -19.29618
   1000    1.00    -19.30247   0.0284  362.  428.   -19.29489
   1200    1.20    -19.30564   0.0280  368.  421.   -19.29513
   1400    1.40    -19.30766   0.0191  369.  287.   -19.29521
   1600    1.60    -19.30939   0.0274  374.  412.   -19.29159
   1800    1.80    -19.31038   0.0309  373.  465.   -19.29253
   2000    2.00    -19.31147   0.0279  377.  420.   -19.29633
   2200    2.20    -19.31231   0.0211  379.  318.   -19.29624
   2400    2.40    -19.31287   0.0191  379.  288.   -19.29221
   2600    2.60    -19.31342   0.0339  381.  509.   -19.29318
   2800    2.80    -19.31381   0.0230  381.  346.   -19.29226
   3000    3.00    -19.31429   0.0270  383.  406.   -19.29171
   3200    3.20    -19.31462   0.0283  384.  426.   -19.29315
   3400    3.40    -19.31486   0.0257  384.  386.   -19.29382
   3600    3.60    -19.31507   0.0243  384.  366.   -19.29219
   3800    3.80    -19.31519   0.0226  384.  340.   -19.29005
   4000    4.00    -19.31526   0.0216  383.  324.   -19.29282
   4200    4.20    -19.31538   0.0254  384.  383.   -19.29301
   4400    4.40    -19.31545   0.0241  384.  363.   -19.29068
   4600    4.60    -19.31556   0.0256  385.  385.   -19.29299
   4800    4.80    -19.31574   0.0351  387.  528.   -19.29097
block <Epot> / <T> :     -19.31984  389.     drift:  0.99D+02   Tbath : 400.
   5000    5.00    -19.31598   0.0222  389.  334.   -19.29205
   5200    5.20    -19.31612   0.0187  390.  281.   -19.29462
   5400    5.40    -19.31623   0.0230  390.  346.   -19.29317
   5600    5.60    -19.31634   0.0269  390.  405.   -19.29469
   5800    5.80    -19.31641   0.0305  390.  459.   -19.29158
   6000    6.00    -19.31654   0.0306  391.  461.   -19.29180
   6200    6.20    -19.31662   0.0257  391.  387.   -19.29220
   6400    6.40    -19.31671   0.0270  391.  406.   -19.28995
   6600    6.60    -19.31678   0.0229  391.  345.   -19.29234
   6800    6.80    -19.31685   0.0262  392.  394.   -19.29275
   7000    7.00    -19.31690   0.0264  392.  398.   -19.29397
   7200    7.20    -19.31692   0.0305  391.  459.   -19.29126
   7400    7.40    -19.31699   0.0252  392.  379.   -19.29001
   7600    7.60    -19.31702   0.0318  392.  478.   -19.29195
   7800    7.80    -19.31706   0.0311  392.  468.   -19.29080
   8000    8.00    -19.31712   0.0297  393.  446.   -19.28986
   8200    8.20    -19.31713   0.0188  392.  283.   -19.29253
   8400    8.40    -19.31714   0.0284  392.  427.   -19.29096
   8600    8.60    -19.31716   0.0273  392.  410.   -19.29016
   8800    8.80    -19.31716   0.0295  392.  443.   -19.29091
   9000    9.00    -19.31713   0.0258  392.  388.   -19.29013
   9200    9.20    -19.31714   0.0227  392.  341.   -19.28905
   9400    9.40    -19.31714   0.0304  392.  457.   -19.29210
   9600    9.60    -19.31716   0.0264  393.  396.   -19.29049
   9800    9.80    -19.31718   0.0317  393.  477.   -19.28932
  10000   10.00    -19.31721   0.0269  393.  405.   -19.28924
block <Epot> / <T> :     -19.31845  398.     drift:  0.99D+02   Tbath : 400.
  10200   10.20    -19.31725   0.0324  394.  488.   -19.29184
  10400   10.40    -19.31727   0.0330  394.  497.   -19.29287
  10600   10.60    -19.31729   0.0236  394.  354.   -19.29291
  10800   10.80    -19.31731   0.0248  394.  373.   -19.29324
  11000   11.00    -19.31732   0.0167  394.  251.   -19.29285
  11200   11.20    -19.31735   0.0289  394.  435.   -19.29117
  11400   11.40    -19.31735   0.0298  394.  448.   -19.29119
  11600   11.60    -19.31737   0.0231  394.  347.   -19.29223
  11800   11.80    -19.31739   0.0321  395.  482.   -19.29207
  12000   12.00    -19.31742   0.0229  395.  345.   -19.29281
  12200   12.20    -19.31747   0.0220  395.  330.   -19.29495
  12400   12.40    -19.31751   0.0303  396.  456.   -19.29074
  12600   12.60    -19.31753   0.0244  395.  367.   -19.29345
  12800   12.80    -19.31754   0.0248  395.  372.   -19.29620
  13000   13.00    -19.31754   0.0171  395.  257.   -19.29318
  13200   13.20    -19.31755   0.0313  395.  471.   -19.28973
  13400   13.40    -19.31755   0.0232  395.  348.   -19.29320
  13600   13.60    -19.31755   0.0236  395.  355.   -19.29088
  13800   13.80    -19.31757   0.0306  395.  460.   -19.28992
  14000   14.00    -19.31757   0.0388  395.  583.   -19.29195
  14200   14.20    -19.31758   0.0217  395.  326.   -19.29132
  14400   14.40    -19.31759   0.0256  395.  385.   -19.28945
  14600   14.60    -19.31758   0.0274  395.  413.   -19.29081
  14800   14.80    -19.31760   0.0272  396.  410.   -19.29436
  15000   15.00    -19.31761   0.0295  396.  443.   -19.29535
block <Epot> / <T> :     -19.31841  400.     drift:  0.99D+02   Tbath : 400.
  15200   15.20    -19.31763   0.0310  396.  466.   -19.28963
  15400   15.40    -19.31764   0.0229  396.  344.   -19.29292
  15600   15.60    -19.31765   0.0296  396.  445.   -19.29322
  15800   15.80    -19.31767   0.0237  396.  357.   -19.29255
  16000   16.00    -19.31768   0.0166  396.  250.   -19.29223
  16200   16.20    -19.31768   0.0347  396.  522.   -19.28897
  16400   16.40    -19.31769   0.0319  396.  480.   -19.29194
  16600   16.60    -19.31772   0.0284  396.  427.   -19.29331
  16800   16.80    -19.31773   0.0294  396.  442.   -19.29232
  17000   17.00    -19.31773   0.0282  396.  423.   -19.29075
  17200   17.20    -19.31771   0.0244  396.  368.   -19.29516
  17400   17.40    -19.31773   0.0267  396.  401.   -19.29036
  17600   17.60    -19.31773   0.0251  396.  378.   -19.29281
  17800   17.80    -19.31775   0.0222  396.  333.   -19.29345
  18000   18.00    -19.31776   0.0299  397.  450.   -19.29434
  18200   18.20    -19.31779   0.0195  397.  293.   -19.29142
  18400   18.40    -19.31780   0.0301  397.  452.   -19.29111
  18600   18.60    -19.31780   0.0296  397.  446.   -19.29286
  18800   18.80    -19.31781   0.0210  397.  316.   -19.29146
  19000   19.00    -19.31782   0.0249  397.  374.   -19.29265
  19200   19.20    -19.31781   0.0308  397.  464.   -19.29055
  19400   19.40    -19.31782   0.0297  397.  447.   -19.29176
  19600   19.60    -19.31782   0.0296  397.  446.   -19.29008
  19800   19.80    -19.31784   0.0269  397.  405.   -19.29169
  20000   20.00    -19.31785   0.0225  397.  339.   -19.29132
block <Epot> / <T> :     -19.31854  400.     drift:  0.39D-03   Tbath : 400.
  20200   20.20    -19.31786   0.0349  397.  524.   -19.29233
  20400   20.40    -19.31787   0.0275  397.  413.   -19.29044
  20600   20.60    -19.31788   0.0227  397.  341.   -19.29250
  20800   20.80    -19.31789   0.0289  397.  435.   -19.29037
  21000   21.00    -19.31790   0.0259  397.  389.   -19.29586
  21200   21.20    -19.31793   0.0243  398.  366.   -19.29179
  21400   21.40    -19.31793   0.0212  397.  319.   -19.29289
  21600   21.60    -19.31794   0.0210  397.  316.   -19.29525
  21800   21.80    -19.31795   0.0140  397.  211.   -19.29442
  22000   22.00    -19.31796   0.0222  397.  334.   -19.29003
  22200   22.20    -19.31797   0.0290  397.  437.   -19.29077
  22400   22.40    -19.31796   0.0268  397.  403.   -19.29255
  22600   22.60    -19.31797   0.0197  397.  296.   -19.29135
  22800   22.80    -19.31798   0.0271  397.  408.   -19.29165
  23000   23.00    -19.31799   0.0289  397.  434.   -19.29128
  23200   23.20    -19.31801   0.0185  398.  278.   -19.29219
  23400   23.40    -19.31804   0.0268  398.  403.   -19.29368
  23600   23.60    -19.31806   0.0281  398.  422.   -19.29266
  23800   23.80    -19.31807   0.0272  398.  410.   -19.29700
  24000   24.00    -19.31809   0.0292  398.  439.   -19.29210
  24200   24.20    -19.31811   0.0256  398.  385.   -19.29216
  24400   24.40    -19.31813   0.0302  398.  454.   -19.29555
  24600   24.60    -19.31816   0.0244  398.  367.   -19.29415
  24800   24.80    -19.31817   0.0321  398.  483.   -19.29602
  25000   25.00    -19.31817   0.0280  398.  421.   -19.29185
block <Epot> / <T> :     -19.31948  402.     drift: -0.32D-03   Tbath : 400.
  25200   25.20    -19.31817   0.0239  398.  359.   -19.29315
  25400   25.40    -19.31817   0.0266  398.  400.   -19.29366
  25600   25.60    -19.31817   0.0307  398.  461.   -19.29133
  25800   25.80    -19.31818   0.0283  398.  425.   -19.29536
  26000   26.00    -19.31818   0.0314  398.  471.   -19.29124
  26200   26.20    -19.31818   0.0217  398.  327.   -19.29418
  26400   26.40    -19.31818   0.0288  398.  433.   -19.28970
  26600   26.60    -19.31819   0.0344  398.  517.   -19.29208
  26800   26.80    -19.31819   0.0277  398.  417.   -19.29425
  27000   27.00    -19.31820   0.0255  398.  383.   -19.29342
  27200   27.20    -19.31820   0.0224  398.  337.   -19.29016
  27400   27.40    -19.31820   0.0333  398.  501.   -19.29048
  27600   27.60    -19.31820   0.0291  398.  437.   -19.28989
  27800   27.80    -19.31820   0.0220  398.  330.   -19.29239
  28000   28.00    -19.31820   0.0295  398.  444.   -19.29048
  28200   28.20    -19.31820   0.0280  398.  421.   -19.28842
  28400   28.40    -19.31821   0.0185  398.  278.   -19.29138
  28600   28.60    -19.31821   0.0194  398.  291.   -19.29298
  28800   28.80    -19.31821   0.0324  398.  487.   -19.28993
  29000   29.00    -19.31820   0.0187  398.  281.   -19.29499
  29200   29.20    -19.31822   0.0281  398.  423.   -19.29225
  29400   29.40    -19.31822   0.0256  398.  385.   -19.29018
  29600   29.60    -19.31822   0.0287  398.  431.   -19.29177
  29800   29.80    -19.31822   0.0223  398.  336.   -19.29192
  30000   30.00    -19.31823   0.0354  398.  533.   -19.28860
block <Epot> / <T> :     -19.31852  399.     drift: -0.13D-03   Tbath : 400.
  30200   30.20    -19.31823   0.0304  398.  457.   -19.29495
  30400   30.40    -19.31823   0.0229  398.  344.   -19.29211
  30600   30.60    -19.31823   0.0252  398.  379.   -19.29138
  30800   30.80    -19.31823   0.0270  398.  407.   -19.28807
  31000   31.00    -19.31823   0.0274  398.  412.   -19.29266
  31200   31.20    -19.31823   0.0209  398.  314.   -19.29243
  31400   31.40    -19.31824   0.0264  398.  397.   -19.29267
  31600   31.60    -19.31824   0.0227  398.  342.   -19.29285
  31800   31.80    -19.31824   0.0203  398.  305.   -19.29129
  32000   32.00    -19.31824   0.0231  398.  348.   -19.29230
  32200   32.20    -19.31824   0.0281  398.  422.   -19.29209
  32400   32.40    -19.31824   0.0328  398.  494.   -19.29085
  32600   32.60    -19.31824   0.0328  398.  493.   -19.29272
  32800   32.80    -19.31825   0.0237  398.  357.   -19.29384
  33000   33.00    -19.31825   0.0252  398.  379.   -19.29224
  33200   33.20    -19.31825   0.0306  398.  460.   -19.29243
  33400   33.40    -19.31825   0.0304  398.  457.   -19.28974
  33600   33.60    -19.31825   0.0259  398.  389.   -19.29027
  33800   33.80    -19.31825   0.0255  398.  384.   -19.29400
  34000   34.00    -19.31825   0.0229  398.  345.   -19.28988
  34200   34.20    -19.31826   0.0294  398.  442.   -19.29185
  34400   34.40    -19.31826   0.0224  398.  337.   -19.29146
  34600   34.60    -19.31825   0.0309  398.  464.   -19.29080
  34800   34.80    -19.31825   0.0238  398.  359.   -19.29097
  35000   35.00    -19.31826   0.0326  398.  491.   -19.29016
block <Epot> / <T> :     -19.31841  399.     drift:  0.14D-03   Tbath : 400.
  35200   35.20    -19.31825   0.0290  398.  436.   -19.29243
  35400   35.40    -19.31825   0.0252  398.  379.   -19.29486
  35600   35.60    -19.31825   0.0266  398.  400.   -19.28996
  35800   35.80    -19.31826   0.0212  398.  319.   -19.29094
  36000   36.00    -19.31826   0.0289  398.  435.   -19.28900
  36200   36.20    -19.31827   0.0230  398.  346.   -19.29267
  36400   36.40    -19.31828   0.0236  399.  355.   -19.29427
  36600   36.60    -19.31829   0.0240  399.  361.   -19.29434
  36800   36.80    -19.31830   0.0301  399.  453.   -19.29327
  37000   37.00    -19.31830   0.0281  398.  422.   -19.29189
  37200   37.20    -19.31831   0.0206  398.  310.   -19.29411
  37400   37.40    -19.31831   0.0233  398.  350.   -19.29121
  37600   37.60    -19.31832   0.0319  399.  479.   -19.29353
  37800   37.80    -19.31833   0.0228  399.  342.   -19.29088
  38000   38.00    -19.31834   0.0235  399.  354.   -19.29239
  38200   38.20    -19.31834   0.0267  399.  402.   -19.29082
  38400   38.40    -19.31834   0.0268  399.  403.   -19.29318
  38600   38.60    -19.31835   0.0328  399.  493.   -19.29495
  38800   38.80    -19.31836   0.0244  399.  368.   -19.29431
  39000   39.00    -19.31837   0.0220  399.  331.   -19.29331
  39200   39.20    -19.31837   0.0322  399.  484.   -19.29368
  39400   39.40    -19.31836   0.0218  398.  329.   -19.29350
  39600   39.60    -19.31837   0.0207  398.  311.   -19.29141
  39800   39.80    -19.31836   0.0340  398.  512.   -19.29047
  40000   40.00    -19.31836   0.0176  398.  265.   -19.29193
block <Epot> / <T> :     -19.31911  400.     drift:  0.12D-03   Tbath : 400.
  40200   40.20    -19.31836   0.0322  398.  485.   -19.29418
  40400   40.40    -19.31836   0.0211  398.  318.   -19.29420
  40600   40.60    -19.31836   0.0243  398.  366.   -19.29072
  40800   40.80    -19.31835   0.0289  398.  434.   -19.29062
  41000   41.00    -19.31835   0.0247  398.  371.   -19.29192
  41200   41.20    -19.31835   0.0295  398.  443.   -19.28945
  41400   41.40    -19.31834   0.0193  398.  290.   -19.28892
  41600   41.60    -19.31834   0.0216  398.  325.   -19.29155
  41800   41.80    -19.31833   0.0279  398.  420.   -19.29020
  42000   42.00    -19.31833   0.0266  398.  400.   -19.29057
  42200   42.20    -19.31833   0.0297  398.  447.   -19.29283
  42400   42.40    -19.31833   0.0322  398.  484.   -19.29022
  42600   42.60    -19.31833   0.0274  398.  413.   -19.29212
  42800   42.80    -19.31832   0.0257  398.  387.   -19.29131
  43000   43.00    -19.31832   0.0299  398.  450.   -19.29269
  43200   43.20    -19.31831   0.0174  398.  262.   -19.29209
  43400   43.40    -19.31831   0.0336  398.  505.   -19.28979
  43600   43.60    -19.31831   0.0288  398.  434.   -19.29136
  43800   43.80    -19.31831   0.0262  398.  395.   -19.29154
  44000   44.00    -19.31830   0.0215  398.  324.   -19.29168
  44200   44.20    -19.31829   0.0204  398.  307.   -19.29098
  44400   44.40    -19.31829   0.0272  398.  409.   -19.29145
  44600   44.60    -19.31829   0.0241  398.  362.   -19.29112
  44800   44.80    -19.31829   0.0261  398.  392.   -19.29291
  45000   45.00    -19.31828   0.0233  398.  350.   -19.29241
block <Epot> / <T> :     -19.31766  399.     drift:  0.19D-03   Tbath : 400.
  45200   45.20    -19.31829   0.0230  399.  346.   -19.29294
  45400   45.40    -19.31829   0.0185  399.  278.   -19.29056
  45600   45.60    -19.31829   0.0342  399.  514.   -19.29016
  45800   45.80    -19.31829   0.0355  399.  534.   -19.29222
  46000   46.00    -19.31829   0.0274  399.  412.   -19.29175
  46200   46.20    -19.31830   0.0300  399.  451.   -19.28856
  46400   46.40    -19.31830   0.0226  399.  340.   -19.29342
  46600   46.60    -19.31830   0.0364  399.  547.   -19.29033
  46800   46.80    -19.31830   0.0199  399.  299.   -19.29322
  47000   47.00    -19.31831   0.0363  399.  546.   -19.29116
  47200   47.20    -19.31831   0.0257  399.  387.   -19.29380
  47400   47.40    -19.31832   0.0309  399.  464.   -19.29272
  47600   47.60    -19.31833   0.0275  399.  414.   -19.29357
  47800   47.80    -19.31834   0.0244  399.  367.   -19.29224
  48000   48.00    -19.31835   0.0244  399.  366.   -19.29589
  48200   48.20    -19.31835   0.0269  399.  404.   -19.29295
  48400   48.40    -19.31836   0.0261  399.  393.   -19.29370
  48600   48.60    -19.31836   0.0211  399.  318.   -19.29128
  48800   48.80    -19.31836   0.0229  399.  344.   -19.29320
  49000   49.00    -19.31837   0.0305  399.  458.   -19.29010
  49200   49.20    -19.31837   0.0303  399.  456.   -19.29307
  49400   49.40    -19.31837   0.0327  399.  492.   -19.29134
  49600   49.60    -19.31838   0.0243  399.  366.   -19.29454
  49800   49.80    -19.31838   0.0258  399.  389.   -19.29364
  50000   50.00    -19.31838   0.0279  399.  419.   -19.29339
block <Epot> / <T> :     -19.31928  402.     drift: -0.12D-03   Tbath : 400.
  50200   50.20    -19.31838   0.0257  399.  386.   -19.29238
  50400   50.40    -19.31838   0.0275  399.  414.   -19.29050
  50600   50.60    -19.31838   0.0319  399.  480.   -19.29352
  50800   50.80    -19.31838   0.0240  399.  361.   -19.29261
  51000   51.00    -19.31838   0.0209  399.  314.   -19.28990
  51200   51.20    -19.31839   0.0261  399.  393.   -19.29061
  51400   51.40    -19.31838   0.0222  399.  334.   -19.29514
  51600   51.60    -19.31839   0.0307  399.  462.   -19.29191
  51800   51.80    -19.31839   0.0254  399.  382.   -19.29113
  52000   52.00    -19.31839   0.0315  399.  474.   -19.29162
  52200   52.20    -19.31839   0.0216  399.  325.   -19.29240
  52400   52.40    -19.31839   0.0245  399.  369.   -19.29125
  52600   52.60    -19.31839   0.0249  399.  374.   -19.29432
  52800   52.80    -19.31839   0.0261  399.  392.   -19.29183
  53000   53.00    -19.31839   0.0361  399.  543.   -19.29070
  53200   53.20    -19.31839   0.0244  399.  366.   -19.29098
  53400   53.40    -19.31839   0.0286  399.  431.   -19.29395
  53600   53.60    -19.31839   0.0286  399.  430.   -19.29023
  53800   53.80    -19.31839   0.0359  399.  540.   -19.29138
  54000   54.00    -19.31839   0.0205  399.  309.   -19.29318
  54200   54.20    -19.31839   0.0267  399.  401.   -19.29212
  54400   54.40    -19.31839   0.0236  399.  354.   -19.29042
  54600   54.60    -19.31838   0.0206  399.  309.   -19.28863
  54800   54.80    -19.31838   0.0369  399.  554.   -19.29158
  55000   55.00    -19.31838   0.0206  399.  309.   -19.28906
block <Epot> / <T> :     -19.31834  398.     drift:  0.71D-04   Tbath : 400.
  55200   55.20    -19.31837   0.0252  399.  379.   -19.29358
  55400   55.40    -19.31837   0.0219  399.  330.   -19.29077
  55600   55.60    -19.31837   0.0210  399.  316.   -19.29377
  55800   55.80    -19.31837   0.0296  399.  445.   -19.29126
  56000   56.00    -19.31837   0.0313  399.  471.   -19.29079
  56200   56.20    -19.31837   0.0251  399.  378.   -19.29304
  56400   56.40    -19.31837   0.0245  399.  369.   -19.29155
  56600   56.60    -19.31836   0.0186  399.  280.   -19.29172
  56800   56.80    -19.31836   0.0318  399.  479.   -19.28947
  57000   57.00    -19.31836   0.0285  399.  428.   -19.29213
  57200   57.20    -19.31836   0.0358  399.  538.   -19.29143
  57400   57.40    -19.31837   0.0279  399.  420.   -19.29066
  57600   57.60    -19.31837   0.0246  399.  369.   -19.29212
  57800   57.80    -19.31837   0.0290  399.  436.   -19.28658
  58000   58.00    -19.31837   0.0258  399.  389.   -19.29350
  58200   58.20    -19.31837   0.0332  399.  499.   -19.28753
  58400   58.40    -19.31837   0.0346  399.  520.   -19.29597
  58600   58.60    -19.31837   0.0286  399.  431.   -19.29420
  58800   58.80    -19.31838   0.0238  399.  358.   -19.29327
  59000   59.00    -19.31838   0.0210  399.  316.   -19.29385
  59200   59.20    -19.31838   0.0252  399.  378.   -19.29208
  59400   59.40    -19.31838   0.0206  399.  310.   -19.29490
  59600   59.60    -19.31837   0.0163  399.  245.   -19.29229
  59800   59.80    -19.31838   0.0241  399.  362.   -19.29169
  60000   60.00    -19.31838   0.0324  399.  487.   -19.28901
block <Epot> / <T> :     -19.31834  401.     drift: -0.11D-03   Tbath : 400.
  60200   60.20    -19.31838   0.0286  399.  429.   -19.29111
  60400   60.40    -19.31838   0.0301  399.  453.   -19.29132
  60600   60.60    -19.31838   0.0271  399.  407.   -19.29150
  60800   60.80    -19.31837   0.0218  399.  327.   -19.29198
  61000   61.00    -19.31837   0.0306  399.  461.   -19.28860
  61200   61.20    -19.31837   0.0301  399.  452.   -19.29348
  61400   61.40    -19.31837   0.0273  399.  411.   -19.28871
  61600   61.60    -19.31837   0.0313  399.  471.   -19.29041
  61800   61.80    -19.31837   0.0294  399.  442.   -19.28959
  62000   62.00    -19.31837   0.0281  399.  423.   -19.29278
  62200   62.20    -19.31837   0.0269  399.  404.   -19.29255
  62400   62.40    -19.31837   0.0243  399.  365.   -19.29316
  62600   62.60    -19.31837   0.0348  399.  523.   -19.29041
  62800   62.80    -19.31837   0.0277  399.  416.   -19.29151
  63000   63.00    -19.31837   0.0294  399.  443.   -19.28808
  63200   63.20    -19.31837   0.0307  399.  462.   -19.29110
  63400   63.40    -19.31837   0.0284  399.  427.   -19.29258
  63600   63.60    -19.31837   0.0270  399.  407.   -19.29317
  63800   63.80    -19.31837   0.0224  399.  336.   -19.29431
  64000   64.00    -19.31837   0.0300  399.  450.   -19.28973
  64200   64.20    -19.31838   0.0243  399.  366.   -19.29159
  64400   64.40    -19.31838   0.0233  399.  351.   -19.29340
  64600   64.60    -19.31838   0.0234  399.  351.   -19.29379
  64800   64.80    -19.31838   0.0222  399.  334.   -19.29240
  65000   65.00    -19.31838   0.0259  399.  389.   -19.28928
block <Epot> / <T> :     -19.31837  399.     drift:  0.27D-03   Tbath : 400.
  65200   65.20    -19.31837   0.0202  399.  304.   -19.29124
  65400   65.40    -19.31837   0.0204  399.  307.   -19.29292
  65600   65.60    -19.31837   0.0330  399.  497.   -19.28822
  65800   65.80    -19.31837   0.0292  399.  439.   -19.29076
  66000   66.00    -19.31837   0.0251  399.  377.   -19.29295
  66200   66.20    -19.31837   0.0312  399.  470.   -19.29265
  66400   66.40    -19.31836   0.0288  399.  433.   -19.29012
  66600   66.60    -19.31836   0.0223  399.  335.   -19.29336
  66800   66.80    -19.31836   0.0288  399.  433.   -19.28846
  67000   67.00    -19.31836   0.0254  399.  382.   -19.29080
  67200   67.20    -19.31836   0.0274  399.  411.   -19.29319
  67400   67.40    -19.31836   0.0294  399.  442.   -19.28909
  67600   67.60    -19.31837   0.0248  399.  374.   -19.29126
  67800   67.80    -19.31837   0.0228  399.  343.   -19.29232
  68000   68.00    -19.31836   0.0295  399.  443.   -19.29441
  68200   68.20    -19.31836   0.0278  399.  418.   -19.29303
  68400   68.40    -19.31837   0.0231  399.  347.   -19.29017
  68600   68.60    -19.31836   0.0169  399.  254.   -19.29188
  68800   68.80    -19.31836   0.0234  399.  352.   -19.28966
  69000   69.00    -19.31836   0.0389  399.  585.   -19.28919
  69200   69.20    -19.31837   0.0249  399.  375.   -19.29176
  69400   69.40    -19.31837   0.0221  399.  332.   -19.29012
  69600   69.60    -19.31838   0.0193  399.  290.   -19.29358
  69800   69.80    -19.31838   0.0262  399.  395.   -19.29299
  70000   70.00    -19.31838   0.0336  399.  505.   -19.29150
block <Epot> / <T> :     -19.31841  401.     drift: -0.24D-04   Tbath : 400.
  70200   70.20    -19.31838   0.0264  399.  397.   -19.29457
  70400   70.40    -19.31838   0.0272  399.  410.   -19.29232
  70600   70.60    -19.31838   0.0290  399.  436.   -19.29352
  70800   70.80    -19.31839   0.0266  399.  400.   -19.29208
  71000   71.00    -19.31839   0.0236  399.  356.   -19.29475
  71200   71.20    -19.31840   0.0238  399.  358.   -19.29358
  71400   71.40    -19.31840   0.0254  399.  383.   -19.29512
  71600   71.60    -19.31840   0.0236  399.  355.   -19.29071
  71800   71.80    -19.31840   0.0218  399.  328.   -19.29068
  72000   72.00    -19.31841   0.0283  399.  426.   -19.29224
  72200   72.20    -19.31841   0.0174  399.  261.   -19.29510
  72400   72.40    -19.31842   0.0231  399.  347.   -19.29492
  72600   72.60    -19.31842   0.0277  399.  417.   -19.29117
  72800   72.80    -19.31842   0.0301  399.  453.   -19.29010
  73000   73.00    -19.31842   0.0257  399.  387.   -19.29431
  73200   73.20    -19.31842   0.0269  399.  405.   -19.29205
  73400   73.40    -19.31843   0.0252  399.  380.   -19.29226
  73600   73.60    -19.31843   0.0242  399.  364.   -19.29214
  73800   73.80    -19.31843   0.0306  399.  460.   -19.29148
  74000   74.00    -19.31843   0.0279  399.  419.   -19.28889
  74200   74.20    -19.31842   0.0224  399.  337.   -19.29252
  74400   74.40    -19.31843   0.0210  399.  315.   -19.28858
  74600   74.60    -19.31843   0.0227  399.  341.   -19.29505
  74800   74.80    -19.31843   0.0234  399.  352.   -19.29136
  75000   75.00    -19.31843   0.0225  399.  338.   -19.29236
block <Epot> / <T> :     -19.31909  399.     drift: -0.23D-03   Tbath : 400.
  75200   75.20    -19.31843   0.0271  399.  408.   -19.28822
  75400   75.40    -19.31843   0.0309  399.  465.   -19.29384
  75600   75.60    -19.31843   0.0325  399.  488.   -19.29291
  75800   75.80    -19.31843   0.0206  399.  310.   -19.29221
  76000   76.00    -19.31843   0.0310  399.  466.   -19.28969
  76200   76.20    -19.31843   0.0282  399.  424.   -19.29130
  76400   76.40    -19.31844   0.0281  399.  423.   -19.29403
  76600   76.60    -19.31844   0.0278  399.  418.   -19.29111
  76800   76.80    -19.31845   0.0231  399.  348.   -19.29262
  77000   77.00    -19.31845   0.0276  399.  415.   -19.29468
  77200   77.20    -19.31846   0.0278  399.  418.   -19.29513
  77400   77.40    -19.31846   0.0238  399.  357.   -19.29374
  77600   77.60    -19.31846   0.0283  399.  426.   -19.29473
  77800   77.80    -19.31846   0.0235  399.  353.   -19.29070
  78000   78.00    -19.31846   0.0224  399.  337.   -19.29403
  78200   78.20    -19.31846   0.0229  399.  344.   -19.28982
  78400   78.40    -19.31846   0.0235  399.  354.   -19.29150
  78600   78.60    -19.31845   0.0262  399.  394.   -19.29271
  78800   78.80    -19.31846   0.0312  399.  470.   -19.29161
  79000   79.00    -19.31846   0.0324  399.  487.   -19.28972
  79200   79.20    -19.31846   0.0258  399.  388.   -19.29355
  79400   79.40    -19.31846   0.0228  399.  343.   -19.29442
  79600   79.60    -19.31846   0.0261  399.  393.   -19.29074
  79800   79.80    -19.31846   0.0226  399.  339.   -19.29366
  80000   80.00    -19.31846   0.0229  399.  345.   -19.29226
block <Epot> / <T> :     -19.31898  400.     drift: -0.25D-03   Tbath : 400.
  80200   80.20    -19.31846   0.0288  399.  433.   -19.29189
  80400   80.40    -19.31845   0.0176  399.  264.   -19.29016
  80600   80.60    -19.31845   0.0274  399.  412.   -19.28809
  80800   80.80    -19.31845   0.0221  399.  332.   -19.29123
  81000   81.00    -19.31845   0.0218  399.  327.   -19.29277
  81200   81.20    -19.31844   0.0238  399.  358.   -19.28967
  81400   81.40    -19.31844   0.0317  399.  476.   -19.28954
  81600   81.60    -19.31844   0.0215  399.  323.   -19.29241
  81800   81.80    -19.31844   0.0333  399.  500.   -19.28918
  82000   82.00    -19.31844   0.0308  399.  462.   -19.29314
  82200   82.20    -19.31845   0.0257  399.  387.   -19.29237
  82400   82.40    -19.31845   0.0331  399.  498.   -19.29021
  82600   82.60    -19.31845   0.0228  399.  342.   -19.29151
  82800   82.80    -19.31845   0.0246  399.  370.   -19.29088
  83000   83.00    -19.31845   0.0348  399.  523.   -19.28998
  83200   83.20    -19.31845   0.0229  399.  344.   -19.29181
  83400   83.40    -19.31845   0.0307  399.  462.   -19.29302
  83600   83.60    -19.31845   0.0219  399.  329.   -19.29309
  83800   83.80    -19.31845   0.0244  399.  366.   -19.29283
  84000   84.00    -19.31845   0.0268  399.  403.   -19.29351
  84200   84.20    -19.31845   0.0257  399.  387.   -19.29199
  84400   84.40    -19.31845   0.0316  399.  474.   -19.29144
  84600   84.60    -19.31845   0.0252  399.  379.   -19.29338
  84800   84.80    -19.31846   0.0274  399.  412.   -19.29343
  85000   85.00    -19.31846   0.0264  399.  397.   -19.29402
block <Epot> / <T> :     -19.31848  401.     drift: -0.88D-05   Tbath : 400.
  85200   85.20    -19.31846   0.0183  399.  275.   -19.29094
  85400   85.40    -19.31846   0.0336  399.  505.   -19.29190
  85600   85.60    -19.31846   0.0273  399.  410.   -19.29155
  85800   85.80    -19.31846   0.0183  399.  275.   -19.29146
  86000   86.00    -19.31847   0.0324  399.  487.   -19.29375
  86200   86.20    -19.31847   0.0263  399.  395.   -19.29500
  86400   86.40    -19.31847   0.0317  399.  477.   -19.29209
  86600   86.60    -19.31847   0.0255  399.  383.   -19.29404
  86800   86.80    -19.31848   0.0208  399.  313.   -19.29348
  87000   87.00    -19.31848   0.0285  399.  429.   -19.29173
  87200   87.20    -19.31848   0.0191  399.  287.   -19.29194
  87400   87.40    -19.31849   0.0315  399.  473.   -19.29439
  87600   87.60    -19.31849   0.0300  399.  452.   -19.29100
  87800   87.80    -19.31848   0.0287  399.  432.   -19.29125
  88000   88.00    -19.31849   0.0275  399.  413.   -19.29020
  88200   88.20    -19.31849   0.0309  399.  464.   -19.29226
  88400   88.40    -19.31849   0.0251  399.  377.   -19.29157
  88600   88.60    -19.31849   0.0259  399.  389.   -19.29435
  88800   88.80    -19.31849   0.0259  399.  390.   -19.29459
  89000   89.00    -19.31849   0.0236  399.  355.   -19.29080
  89200   89.20    -19.31849   0.0285  399.  428.   -19.28811
  89400   89.40    -19.31849   0.0269  399.  405.   -19.29274
  89600   89.60    -19.31849   0.0263  399.  395.   -19.29093
  89800   89.80    -19.31849   0.0230  399.  346.   -19.29467
  90000   90.00    -19.31849   0.0329  399.  494.   -19.28906
block <Epot> / <T> :     -19.31906  399.     drift:  0.58D-04   Tbath : 400.
  90200   90.20    -19.31849   0.0304  399.  458.   -19.29467
  90400   90.40    -19.31849   0.0188  399.  283.   -19.29182
  90600   90.60    -19.31849   0.0336  399.  506.   -19.29112
  90800   90.80    -19.31849   0.0298  399.  448.   -19.29349
  91000   91.00    -19.31849   0.0300  399.  451.   -19.29142
  91200   91.20    -19.31849   0.0269  399.  404.   -19.29251
  91400   91.40    -19.31849   0.0294  399.  442.   -19.29379
  91600   91.60    -19.31849   0.0332  399.  499.   -19.29170
  91800   91.80    -19.31849   0.0210  399.  316.   -19.28999
  92000   92.00    -19.31849   0.0271  399.  408.   -19.29176
  92200   92.20    -19.31849   0.0207  399.  311.   -19.29303
  92400   92.40    -19.31849   0.0319  399.  480.   -19.29087
  92600   92.60    -19.31849   0.0263  399.  396.   -19.29187
  92800   92.80    -19.31849   0.0259  399.  390.   -19.29108
  93000   93.00    -19.31849   0.0243  399.  365.   -19.28902
  93200   93.20    -19.31848   0.0283  399.  426.   -19.29081
  93400   93.40    -19.31848   0.0218  399.  328.   -19.29357
  93600   93.60    -19.31848   0.0265  399.  399.   -19.28974
  93800   93.80    -19.31848   0.0235  399.  353.   -19.28997
  94000   94.00    -19.31848   0.0349  399.  524.   -19.28882
  94200   94.20    -19.31848   0.0309  399.  465.   -19.28964
  94400   94.40    -19.31848   0.0261  399.  392.   -19.29343
  94600   94.60    -19.31848   0.0292  399.  439.   -19.29325
  94800   94.80    -19.31848   0.0249  399.  374.   -19.29135
  95000   95.00    -19.31848   0.0252  399.  379.   -19.29220
block <Epot> / <T> :     -19.31822  399.     drift:  0.17D-03   Tbath : 400.
  95200   95.20    -19.31848   0.0262  399.  395.   -19.29113
  95400   95.40    -19.31848   0.0287  399.  431.   -19.28569
  95600   95.60    -19.31847   0.0230  399.  345.   -19.29209
  95800   95.80    -19.31847   0.0189  399.  284.   -19.29047
  96000   96.00    -19.31847   0.0297  399.  446.   -19.28991
  96200   96.20    -19.31847   0.0260  399.  390.   -19.29250
  96400   96.40    -19.31847   0.0268  399.  402.   -19.29372
  96600   96.60    -19.31846   0.0279  399.  419.   -19.29238
  96800   96.80    -19.31846   0.0324  399.  487.   -19.29259
  97000   97.00    -19.31846   0.0293  399.  440.   -19.29291
  97200   97.20    -19.31846   0.0206  399.  310.   -19.29174
  97400   97.40    -19.31846   0.0270  399.  406.   -19.29442
  97600   97.60    -19.31846   0.0250  399.  375.   -19.29197
  97800   97.80    -19.31846   0.0254  399.  381.   -19.29165
  98000   98.00    -19.31846   0.0283  399.  426.   -19.28809
  98200   98.20    -19.31846   0.0275  399.  414.   -19.29317
  98400   98.40    -19.31846   0.0206  399.  310.   -19.29230
  98600   98.60    -19.31846   0.0220  399.  331.   -19.28923
  98800   98.80    -19.31845   0.0262  399.  393.   -19.29257
  99000   99.00    -19.31845   0.0240  399.  360.   -19.29158
  99200   99.20    -19.31845   0.0317  399.  476.   -19.29166
  99400   99.40    -19.31845   0.0263  399.  396.   -19.29122
  99600   99.60    -19.31845   0.0266  399.  399.   -19.28810
  99800   99.80    -19.31845   0.0281  399.  423.   -19.29073
 average properties 
 Epot               :  -19.3184551254914     
 Epot (accurate SCC):  -19.3186452054162     
 Ekin               :  2.655948494561757E-002
 Etot               :  -19.2918956405458     
 T                  :   399.372853456073     
 normal exit of md()

------------------------------------------------------------------------
 * finished run on 2024/03/26 at 13:22:14.476     
------------------------------------------------------------------------
 total:
 * wall-time:     0 d,  0 h,  2 min, 27.888 sec
 *  cpu-time:     0 d,  0 h,  9 min, 51.363 sec
 * ratio c/w:     3.999 speedup
 SCF:
 * wall-time:     0 d,  0 h,  0 min,  0.005 sec
 *  cpu-time:     0 d,  0 h,  0 min,  0.018 sec
 * ratio c/w:     3.876 speedup
 ANC optimizer:
 * wall-time:     0 d,  0 h,  0 min,  0.037 sec
 *  cpu-time:     0 d,  0 h,  0 min,  0.147 sec
 * ratio c/w:     3.939 speedup
 MD:
 * wall-time:     0 d,  0 h,  2 min, 27.823 sec
 *  cpu-time:     0 d,  0 h,  9 min, 51.124 sec
 * ratio c/w:     3.999 speedup

