60
 energy: -96.388217591043 gnorm: 0.003936307478 xtb: 6.6.0 (8843059)
O           -2.16431859938113        1.02288395594021        4.15144713914071
C           -1.35974870879665        0.74318271897776        3.43548894971695
Rh          -0.02384314936709        0.31882205966789        2.14623572289984
P            1.59447735495578       -0.00128359024408        0.65440852952167
N            1.45083806089415       -0.53363188563338       -0.97039930484809
C            0.99053996631869        0.22403612846291       -2.02070491910871
C            0.83937124104317       -0.57040605057259       -3.11706904532808
C            1.20514188416305       -1.89284943045907       -2.72291454707631
C            1.56211784865908       -1.83193716492981       -1.40960814444598
N            2.87880382240520       -1.05569704216751        1.05889051049492
C            4.08990945712582       -1.23264289218397        0.42931273408344
C            4.78050816942666       -2.22505146425790        1.05582469993008
C            3.95660778870154       -2.69617944000337        2.12630100906540
C            2.81234532080532       -1.96224128140551        2.09532291491713
N            2.42076071748863        1.45737933625036        0.32144166801568
C            3.31238862631501        1.80214769948053       -0.66778731042959
C            3.65549900502862        3.11179780033550       -0.52287707617625
C            2.94018196339995        3.61207718250280        0.60962499673133
C            2.20264343858929        2.57915806642908        1.09360742476593
P           -1.55247981370806        0.15413332582362        0.56102697817576
N           -3.23083558049936        0.12053700341133        0.95456907438867
C           -4.13765239644377       -0.91008609679195        0.92703152396561
C           -5.30941257131816       -0.48876410761079        1.48330951147420
C           -5.11516725181563        0.86536263248835        1.89149893452235
C           -3.83421506545723        1.19494724552194        1.56478570414089
N           -1.68598123270238        1.34440515657269       -0.64719616138954
C           -2.62605095489981        1.51775025750521       -1.63691944433169
C           -2.38726185546044        2.69451573049811       -2.27763233139627
C           -1.25265384214088        3.29523664205838       -1.64482961543399
C           -0.86227333040151        2.44941309918418       -0.65457088087032
N           -1.48955027669196       -1.31769522157760       -0.29944810516944
C           -2.00543347987011       -1.75169095444278       -1.49718693110697
C           -1.75415915619179       -3.08341716399463       -1.63387366168171
C           -1.05053437503713       -3.50375836402882       -0.46144381362435
C           -0.90792601103089       -2.40267991596165        0.32184773396838
H            1.02771612435255        0.34697973436592        3.30746924800002
H            0.83651478209866        1.27959324900372       -1.90163797145815
H            0.50859110103531       -0.27308478046010       -4.09732833123870
H            1.19802808189097       -2.76491393395021       -3.35461718285395
H            1.89104461081852       -2.60949372687263       -0.74565196379548
H            4.35930733009886       -0.63706153210167       -0.42345725778628
H            5.76018829716773       -2.59537969662959        0.80488200770532
H            4.21090136389476       -3.48470943370175        2.81562195982602
H            1.92841305551819       -1.99876678414740        2.71055490714533
H            3.62013885483653        1.08578149655494       -1.40621767593756
H            4.33388124941606        3.67733070745902       -1.13858172949251
H            2.98810169998061        4.61761192130546        0.99228641119518
H            1.50653568741071        2.51855602786801        1.91983471602384
H           -3.87782921672436       -1.86050598056362        0.49890910477564
H           -6.21565480772048       -1.05900438578487        1.60253549703204
H           -5.84971755940783        1.49039001927881        2.37044744226053
H           -3.29020022728587        2.11341127909374        1.69322161857288
H           -3.39314991599698        0.78414672243832       -1.80202300884663
H           -2.93868620968649        3.11219951194503       -3.10301455502780
H           -0.81006888945295        4.24017973542593       -1.91110105393390
H           -0.07076163732386        2.52101560256335        0.07230097002289
H           -2.50729956561247       -1.07333940120491       -2.16080416726189
H           -2.02031578305874       -3.71288277821836       -2.46648533461200
H           -0.70282163282653       -4.50277025250843       -0.26018249104978
H           -0.43549480744600       -2.26305629619501        1.28552137336791
