      -----------------------------------------------------------      
     |                   =====================                   |     
     |                           x T B                           |     
     |                   =====================                   |     
     |                         S. Grimme                         |     
     |          Mulliken Center for Theoretical Chemistry        |     
     |                    University of Bonn                     |     
      -----------------------------------------------------------      

   * xtb version 6.6.0 (8843059) compiled by 'stahn@majestix' on 2023-02-09

   xtb is free software: you can redistribute it and/or modify it under
   the terms of the GNU Lesser General Public License as published by
   the Free Software Foundation, either version 3 of the License, or
   (at your option) any later version.
   
   xtb is distributed in the hope that it will be useful,
   but WITHOUT ANY WARRANTY; without even the implied warranty of
   MERCHANTABILITY or FITNESS FOR A PARTICULAR PURPOSE.  See the
   GNU Lesser General Public License for more details.
   
   Cite this work as:
   * C. Bannwarth, E. Caldeweyher, S. Ehlert, A. Hansen, P. Pracht,
     J. Seibert, S. Spicher, S. Grimme, WIREs Comput. Mol. Sci., 2020, 11,
     e01493. DOI: 10.1002/wcms.1493
   
   for GFN2-xTB:
   * C. Bannwarth, S. Ehlert and S. Grimme., J. Chem. Theory Comput., 2019,
     15, 1652-1671. DOI: 10.1021/acs.jctc.8b01176
   for GFN1-xTB:
   * S. Grimme, C. Bannwarth, P. Shushkov, J. Chem. Theory Comput., 2017,
     13, 1989-2009. DOI: 10.1021/acs.jctc.7b00118
   for GFN0-xTB:
   * P. Pracht, E. Caldeweyher, S. Ehlert, S. Grimme, ChemRxiv, 2019, preprint.
     DOI: 10.26434/chemrxiv.8326202.v1
   for GFN-FF:
   * S. Spicher and S. Grimme, Angew. Chem. Int. Ed., 2020, 59, 15665-15673.
     DOI: 10.1002/anie.202004239
   
   for ALPB and GBSA implicit solvation:
   * S. Ehlert, M. Stahn, S. Spicher, S. Grimme, J. Chem. Theory Comput.,
     2021, 17, 4250-4261. DOI: 10.1021/acs.jctc.1c00471
   
   for DFT-D4:
   * E. Caldeweyher, C. Bannwarth and S. Grimme, J. Chem. Phys., 2017,
     147, 034112. DOI: 10.1063/1.4993215
   * E. Caldeweyher, S. Ehlert, A. Hansen, H. Neugebauer, S. Spicher,
     C. Bannwarth and S. Grimme, J. Chem. Phys., 2019, 150, 154122.
     DOI: 10.1063/1.5090222
   * E. Caldeweyher, J.-M. Mewes, S. Ehlert and S. Grimme, Phys. Chem. Chem. Phys.
     2020, 22, 8499-8512. DOI: 10.1039/D0CP00502A
   
   for sTDA-xTB:
   * S. Grimme and C. Bannwarth, J. Chem. Phys., 2016, 145, 054103.
     DOI: 10.1063/1.4959605
   
   in the mass-spec context:
   * V. Asgeirsson, C. Bauer and S. Grimme, Chem. Sci., 2017, 8, 4879.
     DOI: 10.1039/c7sc00601b
   * J. Koopman and S. Grimme, ACS Omega 2019, 4, 12, 15120-15133.
     DOI: 10.1021/acsomega.9b02011
   
   for metadynamics refer to:
   * S. Grimme, J. Chem. Theory Comput., 2019, 155, 2847-2862
     DOI: 10.1021/acs.jctc.9b00143
   
   for SPH calculations refer to:
   * S. Spicher and S. Grimme, J. Chem. Theory Comput., 2021, 17, 1701-1714
     DOI: 10.1021/acs.jctc.0c01306
   
   with help from (in alphabetical order)
   P. Atkinson, C. Bannwarth, F. Bohle, G. Brandenburg, E. Caldeweyher
   M. Checinski, S. Dohm, S. Ehlert, S. Ehrlich, I. Gerasimov, C. Hölzer
   A. Katbashev, J. Koopman, C. Lavigne, S. Lehtola, F. März, M. Müller,
   F. Musil, H. Neugebauer, J. Pisarek, C. Plett, P. Pracht, F. Pultar,
   J. Seibert, P. Shushkov, S. Spicher, M. Stahn, M. Steiner, T. Strunk,
   J. Stückrath, T. Rose, and J. Unsleber
   
 * started run on 2024/03/26 at 14:56:14.823     

           -------------------------------------------------
          |                Calculation Setup                |
           -------------------------------------------------

          program call               : xtb 0-2-Ligand-M.xyz --input md_param.inp --omd --gfn 0 --namespace ./0-2-Ligand-M
          hostname                   : node4
          calculation namespace      : ./0-2-Ligand-M
          coordinate file            : 0-2-Ligand-M.xyz
          omp threads                :                     4

   ID    Z sym.   atoms
    1    8 O      1
    2    6 C      2, 6-9, 11-14, 16-19, 22-25, 27-30, 32-35
    3   45 Rh     3
    4   15 P      4, 20
    5    7 N      5, 10, 15, 21, 26, 31
    6    1 H      36-60

molecular fragmentation (1/2 indicates fragments):
111111111111111111111111111111111112111111111111111111111111
# atoms in fragment 1/2:    59     1
 fragment masses (1/2) :      589.35        1.01
CMA distance (Bohr)    :   5.243
constraining FC (au)   :  0.0500

           -------------------------------------------------
          |                 G F N 0 - x T B                 |
           -------------------------------------------------

        Reference                      10.26434/chemrxiv.8326202.v1
      * Hamiltonian:
        H0-scaling (s, p, d)           2.000000    2.486800    2.270000
        zeta-weighting                 1.000000
      * Dispersion:
        s8                             2.850000
        a1                             0.800000
        a2                             4.600000
        s9                             0.000000
      * Repulsion:
        kExp                           1.500000
        rExp                           1.000000
      * Coulomb:
        alpha                          0.000000
        third order                    atomic
        anisotropic                    false
      * Polar bond correction:
        rad-shift                      0.053700
        strength                      -0.012900
        en-exp                         3.484700
        en-scale                       0.509700


          ...................................................
          :                      SETUP                      :
          :.................................................:
          :  # basis functions                 208          :
          :  # atomic orbitals                 205          :
          :  # shells                          123          :
          :  # electrons                       180          :
          :  electronic temp.          300.0000000     K    :
          :  accuracy                    1.0000000          :
          :  -> integral cutoff          0.2500000E+02      :
          :  -> integral neglect         0.1000000E-07      :
          ...................................................
  Checking positiv definite overlap ...  done.
 

         #    Occupation            Energy/Eh            Energy/eV
      -------------------------------------------------------------
         1        2.0000           -0.7214232             -19.6309
       ...           ...                  ...                  ...
        84        2.0000           -0.4104453             -11.1688
        85        2.0000           -0.4101132             -11.1597
        86        2.0000           -0.4094960             -11.1430
        87        2.0000           -0.4091373             -11.1332
        88        2.0000           -0.4084007             -11.1131
        89        2.0000           -0.3733127             -10.1584
        90        1.8242           -0.3622118              -9.8563 (HOMO)
        91        0.1758           -0.3577659              -9.7353 (LUMO)
        92                         -0.2589699              -7.0469
        93                         -0.2565896              -6.9822
        94                         -0.2527902              -6.8788
        95                         -0.2490434              -6.7768
       ...                                ...                  ...
       205                          3.2214104              87.6590
      -------------------------------------------------------------
                  HL-Gap            0.0044459 Eh            0.1210 eV
             Fermi-level            0.0000000 Eh            0.0000 eV

 EHT (total)                   0 d,  0 h,  0 min,  0.025 sec
 EHT setup                      ...        0 min,  0.001 sec (  2.491%)
 Coordination number            ...        0 min,  0.000 sec (  1.326%)
 EEQ model density              ...        0 min,  0.001 sec (  2.797%)
 D4 Dispersion                  ...        0 min,  0.004 sec ( 15.864%)
 Integral evaluation            ...        0 min,  0.004 sec ( 16.109%)
 Cholesky factorization         ...        0 min,  0.001 sec (  5.498%)
 Zeroth order Hamiltonian       ...        0 min,  0.007 sec ( 28.103%)
 Gradient calculation           ...        0 min,  0.007 sec ( 26.606%)

         :::::::::::::::::::::::::::::::::::::::::::::::::::::
         ::                     SUMMARY                     ::
         :::::::::::::::::::::::::::::::::::::::::::::::::::::
         :: total energy             -96.088020207686 Eh    ::
         :: gradient norm              0.456879583250 Eh/a0 ::
         :: HOMO-LUMO gap              0.120978868422 eV    ::
         ::.................................................::
         :: H0 energy                -97.276923895807 Eh    ::
         :: repulsion energy           1.726266830091 Eh    ::
         :: electrostat energy        -0.341940119440 Eh    ::
         :: -> Gsolv                   0.000000000000 Eh    ::
         ::    -> Gsasa                0.000000000000 Eh    ::
         ::    -> Gshift               0.000000000000 Eh    ::
         :: dispersion energy         -0.053837105119 Eh    ::
         :: short-range corr.         -0.141585917411 Eh    ::
         :: add. restraining           0.000000000000 Eh    ::
         :: total charge               0.000000000000 e     ::
         :::::::::::::::::::::::::::::::::::::::::::::::::::::

      ----------------------------------------------------------- 
     |                   =====================                   |
     |                        A N C O P T                        |
     |                   =====================                   |
     |               Approximate Normal Coordinate               |
     |                Rational Function Optimizer                |
      ----------------------------------------------------------- 

          ...................................................
          :                      SETUP                      :
          :.................................................:
          :   optimization level             loose          :
          :   max. optcycles                   200          :
          :   ANC micro-cycles                  20          :
          :   degrees of freedom               174          :
          :.................................................:
          :   RF solver                   davidson          :
          :   write xtbopt.log                true          :
          :   linear?                        false          :
          :   energy convergence         0.5000000E-04 Eh   :
          :   grad. convergence          0.4000000E-02 Eh/α :
          :   maxmium RF displ.          1.0000000          :
          :   Hlow (freq-cutoff)         0.1000000E-01      :
          :   Hmax (freq-cutoff)         5.0000000          :
          :   S6 in model hess.         20.0000000          :
          ...................................................

generating ANC from model Hessian ...
Using Lindh-Hessian (1995)
 Shifting diagonal of input Hessian by   1.052693396343289E-002
 Lowest  eigenvalues of input Hessian
    0.010000    0.010353    0.000000    0.000000    0.000000    0.000000
    0.000000    0.000000    0.010551    0.010706    0.010869    0.011135
    0.011350    0.011475    0.011510    0.011682    0.012186    0.012210
 Highest eigenvalues
    2.086567    2.140065    2.152195    2.173470    2.189261    2.812406
 

........................................................................
.............................. CYCLE    1 ..............................
........................................................................
     Diagonalization            ...        0 min,  0.003 sec
 * total energy  :   -96.0880202 Eh     change        0.0000000E+00 Eh
   gradient norm :     0.4568796 Eh/α   predicted     0.0000000E+00 (    NaN%)
   displ. norm   :     0.5837386 α      lambda       -0.1882220E+00
   maximum displ.:     0.2372523 α      in ANC's #112, #50, #100, ...

........................................................................
.............................. CYCLE    2 ..............................
........................................................................
     Diagonalization            ...        0 min,  0.003 sec
 * total energy  :   -96.1939543 Eh     change       -0.1059341E+00 Eh
   gradient norm :     0.1445311 Eh/α   predicted    -0.1261794E+00 (  19.11%)
   displ. norm   :     0.6629975 α      lambda       -0.7019094E-01
   maximum displ.:     0.3089167 α      in ANC's #51, #50, #83, ...

........................................................................
.............................. CYCLE    3 ..............................
........................................................................
     Diagonalization            ...        0 min,  0.003 sec
 * total energy  :   -96.2531200 Eh     change       -0.5916577E-01 Eh
   gradient norm :     0.1066490 Eh/α   predicted    -0.5052222E-01 ( -14.61%)
   displ. norm   :     0.8001121 α      lambda       -0.5817926E-01
   maximum displ.:     0.3359985 α      in ANC's #83, #82, #11, ...

........................................................................
.............................. CYCLE    4 ..............................
........................................................................
     Diagonalization            ...        0 min,  0.003 sec
 * total energy  :   -96.2797153 Eh     change       -0.2659527E-01 Eh
   gradient norm :     0.1624752 Eh/α   predicted    -0.4771216E-01 (  79.40%)
   displ. norm   :     0.6049435 α      lambda       -0.3524205E-01
   maximum displ.:     0.2688227 α      in ANC's #2, #5, #6, ...

........................................................................
.............................. CYCLE    5 ..............................
........................................................................
     Diagonalization            ...        0 min,  0.003 sec
 * total energy  :   -96.2978147 Eh     change       -0.1809941E-01 Eh
   gradient norm :     0.0797375 Eh/α   predicted    -0.2406958E-01 (  32.99%)
   displ. norm   :     0.6723131 α      lambda       -0.3737376E-01
   maximum displ.:     0.2470734 α      in ANC's #83, #22, #13, ...

........................................................................
.............................. CYCLE    6 ..............................
........................................................................
     Diagonalization            ...        0 min,  0.003 sec
 * total energy  :   -96.3064120 Eh     change       -0.8597238E-02 Eh
   gradient norm :     0.0771567 Eh/α   predicted    -0.2713344E-01 ( 215.61%)
   displ. norm   :     0.4999326 α      lambda       -0.2136955E-01
   maximum displ.:     0.1562045 α      in ANC's #43, #83, #9, ...

........................................................................
.............................. CYCLE    7 ..............................
........................................................................
     Diagonalization            ...        0 min,  0.003 sec
 * total energy  :   -96.3229593 Eh     change       -0.1654737E-01 Eh
   gradient norm :     0.0408325 Eh/α   predicted    -0.1335526E-01 ( -19.29%)
   displ. norm   :     0.6543395 α      lambda       -0.1805350E-01
   maximum displ.:     0.2466202 α      in ANC's #9, #43, #7, ...

........................................................................
.............................. CYCLE    8 ..............................
........................................................................
     Diagonalization            ...        0 min,  0.003 sec
 * total energy  :   -96.3323972 Eh     change       -0.9437868E-02 Eh
   gradient norm :     0.0565865 Eh/α   predicted    -0.1289165E-01 (  36.59%)
   displ. norm   :     0.6109244 α      lambda       -0.1225999E-01
   maximum displ.:     0.2855585 α      in ANC's #9, #7, #2, ...

........................................................................
.............................. CYCLE    9 ..............................
........................................................................
     Diagonalization            ...        0 min,  0.003 sec
 * total energy  :   -96.3404636 Eh     change       -0.8066458E-02 Eh
   gradient norm :     0.0298103 Eh/α   predicted    -0.8417884E-02 (   4.36%)
   displ. norm   :     0.6888109 α      lambda       -0.8743595E-02
   maximum displ.:     0.3851941 α      in ANC's #9, #7, #2, ...

........................................................................
.............................. CYCLE   10 ..............................
........................................................................
     Diagonalization            ...        0 min,  0.003 sec
 * total energy  :   -96.3454114 Eh     change       -0.4947780E-02 Eh
   gradient norm :     0.0338352 Eh/α   predicted    -0.6446043E-02 (  30.28%)
   displ. norm   :     0.6245402 α      lambda       -0.8174253E-02
   maximum displ.:     0.2307809 α      in ANC's #2, #9, #31, ...

........................................................................
.............................. CYCLE   11 ..............................
........................................................................
     Diagonalization            ...        0 min,  0.003 sec
 * total energy  :   -96.3514245 Eh     change       -0.6013039E-02 Eh
   gradient norm :     0.0177965 Eh/α   predicted    -0.5681316E-02 (  -5.52%)
   displ. norm   :     0.7051830 α      lambda       -0.5158866E-02
   maximum displ.:     0.3528348 α      in ANC's #2, #13, #9, ...

........................................................................
.............................. CYCLE   12 ..............................
........................................................................
     Diagonalization            ...        0 min,  0.003 sec
 * total energy  :   -96.3557633 Eh     change       -0.4338851E-02 Eh
   gradient norm :     0.0245121 Eh/α   predicted    -0.3862148E-02 ( -10.99%)
   displ. norm   :     0.7639347 α      lambda       -0.5085768E-02
   maximum displ.:     0.4072591 α      in ANC's #2, #13, #12, ...

........................................................................
.............................. CYCLE   13 ..............................
........................................................................
     Diagonalization            ...        0 min,  0.003 sec
 * total energy  :   -96.3590398 Eh     change       -0.3276494E-02 Eh
   gradient norm :     0.0233149 Eh/α   predicted    -0.4026904E-02 (  22.90%)
   displ. norm   :     0.7178615 α      lambda       -0.4925283E-02
   maximum displ.:     0.3387718 α      in ANC's #2, #8, #13, ...

........................................................................
.............................. CYCLE   14 ..............................
........................................................................
     Diagonalization            ...        0 min,  0.003 sec
 * total energy  :   -96.3610457 Eh     change       -0.2005927E-02 Eh
   gradient norm :     0.0328627 Eh/α   predicted    -0.3731711E-02 (  86.03%)
   displ. norm   :     0.3997800 α      lambda       -0.3310287E-02
   maximum displ.:     0.1820206 α      in ANC's #2, #5, #13, ...

........................................................................
.............................. CYCLE   15 ..............................
........................................................................
     Diagonalization            ...        0 min,  0.003 sec
 * total energy  :   -96.3631800 Eh     change       -0.2134293E-02 Eh
   gradient norm :     0.0318212 Eh/α   predicted    -0.1919679E-02 ( -10.06%)
   displ. norm   :     0.5024772 α      lambda       -0.3300440E-02
   maximum displ.:     0.2055503 α      in ANC's #8, #5, #2, ...

........................................................................
.............................. CYCLE   16 ..............................
........................................................................
     Diagonalization            ...        0 min,  0.003 sec
 * total energy  :   -96.3650277 Eh     change       -0.1847651E-02 Eh
   gradient norm :     0.0305599 Eh/α   predicted    -0.2066873E-02 (  11.86%)
   displ. norm   :     0.6268039 α      lambda       -0.2929800E-02
   maximum displ.:     0.3001559 α      in ANC's #2, #8, #13, ...

........................................................................
.............................. CYCLE   17 ..............................
........................................................................
     Diagonalization            ...        0 min,  0.003 sec
 * total energy  :   -96.3672511 Eh     change       -0.2223390E-02 Eh
   gradient norm :     0.0233012 Eh/α   predicted    -0.2040440E-02 (  -8.23%)
   displ. norm   :     0.6664747 α      lambda       -0.2625730E-02
   maximum displ.:     0.2966895 α      in ANC's #2, #5, #8, ...

........................................................................
.............................. CYCLE   18 ..............................
........................................................................
     Diagonalization            ...        0 min,  0.003 sec
 * total energy  :   -96.3691859 Eh     change       -0.1934825E-02 Eh
   gradient norm :     0.0262373 Eh/α   predicted    -0.1896028E-02 (  -2.01%)
   displ. norm   :     0.6987584 α      lambda       -0.2196601E-02
   maximum displ.:     0.2831270 α      in ANC's #8, #6, #2, ...

........................................................................
.............................. CYCLE   19 ..............................
........................................................................
     Diagonalization            ...        0 min,  0.003 sec
 * total energy  :   -96.3707881 Eh     change       -0.1602207E-02 Eh
   gradient norm :     0.0298151 Eh/α   predicted    -0.1634562E-02 (   2.02%)
   displ. norm   :     0.6214265 α      lambda       -0.2184984E-02
   maximum displ.:     0.2642380 α      in ANC's #5, #8, #6, ...

........................................................................
.............................. CYCLE   20 ..............................
........................................................................
     Diagonalization            ...        0 min,  0.003 sec
 * total energy  :   -96.3721727 Eh     change       -0.1384612E-02 Eh
   gradient norm :     0.0188744 Eh/α   predicted    -0.1514383E-02 (   9.37%)
   displ. norm   :     0.6910014 α      lambda       -0.1930880E-02
   maximum displ.:     0.3370305 α      in ANC's #2, #8, #5, ...
 * RMSD in coord.:     1.0944218 α      energy gain  -0.2841525E+00 Eh

generating ANC from model Hessian ...
Using Lindh-Hessian (1995)
 Shifting diagonal of input Hessian by   1.009842257255267E-002
 Lowest  eigenvalues of input Hessian
    0.010000    0.000000    0.000000    0.000000    0.000000    0.000000
    0.000000    0.010104    0.010296    0.010536    0.010681    0.010798
    0.011068    0.011135    0.011646    0.011723    0.011809    0.011867
 Highest eigenvalues
    2.045749    2.048999    2.064384    2.070087    2.097768    2.454081
 

........................................................................
.............................. CYCLE   21 ..............................
........................................................................
     Diagonalization            ...        0 min,  0.003 sec
 * total energy  :   -96.3735396 Eh     change       -0.1366889E-02 Eh
   gradient norm :     0.0236391 Eh/α   predicted     0.0000000E+00 (-100.00%)
   displ. norm   :     0.2263821 α      lambda       -0.1183136E-02
   maximum displ.:     0.0768468 α      in ANC's #19, #1, #5, ...

........................................................................
.............................. CYCLE   22 ..............................
........................................................................
     Diagonalization            ...        0 min,  0.003 sec
 * total energy  :   -96.3736984 Eh     change       -0.1587600E-03 Eh
   gradient norm :     0.0192896 Eh/α   predicted    -0.6222280E-03 ( 291.93%)
   displ. norm   :     0.3953683 α      lambda       -0.2688018E-02
   maximum displ.:     0.1850842 α      in ANC's #5, #23, #1, ...

........................................................................
.............................. CYCLE   23 ..............................
........................................................................
     Diagonalization            ...        0 min,  0.003 sec
 * total energy  :   -96.3743167 Eh     change       -0.6183508E-03 Eh
   gradient norm :     0.0347949 Eh/α   predicted    -0.1554100E-02 ( 151.33%)
   displ. norm   :     0.3059576 α      lambda       -0.2211631E-02
   maximum displ.:     0.1394126 α      in ANC's #5, #23, #18, ...

........................................................................
.............................. CYCLE   24 ..............................
........................................................................
     Diagonalization            ...        0 min,  0.003 sec
 * total energy  :   -96.3752490 Eh     change       -0.9323096E-03 Eh
   gradient norm :     0.0154281 Eh/α   predicted    -0.1209360E-02 (  29.72%)
   displ. norm   :     0.2892360 α      lambda       -0.1248182E-02
   maximum displ.:     0.1478616 α      in ANC's #1, #5, #3, ...

........................................................................
.............................. CYCLE   25 ..............................
........................................................................
     Diagonalization            ...        0 min,  0.003 sec
 * total energy  :   -96.3760414 Eh     change       -0.7923713E-03 Eh
   gradient norm :     0.0167494 Eh/α   predicted    -0.6763010E-03 ( -14.65%)
   displ. norm   :     0.4035517 α      lambda       -0.7887288E-03
   maximum displ.:     0.2115734 α      in ANC's #5, #1, #3, ...

........................................................................
.............................. CYCLE   26 ..............................
........................................................................
     Diagonalization            ...        0 min,  0.003 sec
 * total energy  :   -96.3766910 Eh     change       -0.6496518E-03 Eh
   gradient norm :     0.0123674 Eh/α   predicted    -0.4585887E-03 ( -29.41%)
   displ. norm   :     0.6516214 α      lambda       -0.1094425E-02
   maximum displ.:     0.3434891 α      in ANC's #5, #1, #3, ...

........................................................................
.............................. CYCLE   27 ..............................
........................................................................
     Diagonalization            ...        0 min,  0.003 sec
 * total energy  :   -96.3775955 Eh     change       -0.9044231E-03 Eh
   gradient norm :     0.0133872 Eh/α   predicted    -0.7795687E-03 ( -13.80%)
   displ. norm   :     0.6715418 α      lambda       -0.1191164E-02
   maximum displ.:     0.3489053 α      in ANC's #5, #1, #3, ...

........................................................................
.............................. CYCLE   28 ..............................
........................................................................
     Diagonalization            ...        0 min,  0.003 sec
 * total energy  :   -96.3784997 Eh     change       -0.9041983E-03 Eh
   gradient norm :     0.0172292 Eh/α   predicted    -0.8641746E-03 (  -4.43%)
   displ. norm   :     0.7458743 α      lambda       -0.1235328E-02
   maximum displ.:     0.3817033 α      in ANC's #1, #5, #3, ...

........................................................................
.............................. CYCLE   29 ..............................
........................................................................
     Diagonalization            ...        0 min,  0.003 sec
 * total energy  :   -96.3794072 Eh     change       -0.9074887E-03 Eh
   gradient norm :     0.0155312 Eh/α   predicted    -0.9612920E-03 (   5.93%)
   displ. norm   :     0.5955311 α      lambda       -0.9489628E-03
   maximum displ.:     0.3020869 α      in ANC's #1, #5, #3, ...

........................................................................
.............................. CYCLE   30 ..............................
........................................................................
     Diagonalization            ...        0 min,  0.003 sec
 * total energy  :   -96.3801831 Eh     change       -0.7759140E-03 Eh
   gradient norm :     0.0114176 Eh/α   predicted    -0.6427630E-03 ( -17.16%)
   displ. norm   :     0.6905079 α      lambda       -0.9444525E-03
   maximum displ.:     0.3402046 α      in ANC's #5, #1, #3, ...

........................................................................
.............................. CYCLE   31 ..............................
........................................................................
     Diagonalization            ...        0 min,  0.003 sec
 * total energy  :   -96.3809389 Eh     change       -0.7558452E-03 Eh
   gradient norm :     0.0060254 Eh/α   predicted    -0.6973901E-03 (  -7.73%)
   displ. norm   :     0.7316516 α      lambda       -0.7742366E-03
   maximum displ.:     0.3663492 α      in ANC's #1, #5, #3, ...

........................................................................
.............................. CYCLE   32 ..............................
........................................................................
     Diagonalization            ...        0 min,  0.003 sec
 * total energy  :   -96.3815796 Eh     change       -0.6407020E-03 Eh
   gradient norm :     0.0101685 Eh/α   predicted    -0.5943548E-03 (  -7.23%)
   displ. norm   :     0.6651417 α      lambda       -0.8402927E-03
   maximum displ.:     0.3064137 α      in ANC's #2, #1, #3, ...

........................................................................
.............................. CYCLE   33 ..............................
........................................................................
     Diagonalization            ...        0 min,  0.003 sec
 * total energy  :   -96.3819908 Eh     change       -0.4112178E-03 Eh
   gradient norm :     0.0157118 Eh/α   predicted    -0.6060253E-03 (  47.37%)
   displ. norm   :     0.6377859 α      lambda       -0.8620288E-03
   maximum displ.:     0.3071500 α      in ANC's #5, #1, #3, ...

........................................................................
.............................. CYCLE   34 ..............................
........................................................................
     Diagonalization            ...        0 min,  0.003 sec
 * total energy  :   -96.3825278 Eh     change       -0.5369267E-03 Eh
   gradient norm :     0.0131758 Eh/α   predicted    -0.6063398E-03 (  12.93%)
   displ. norm   :     0.4241064 α      lambda       -0.4358710E-03
   maximum displ.:     0.2102187 α      in ANC's #2, #5, #3, ...

........................................................................
.............................. CYCLE   35 ..............................
........................................................................
     Diagonalization            ...        0 min,  0.003 sec
 * total energy  :   -96.3828522 Eh     change       -0.3244530E-03 Eh
   gradient norm :     0.0163786 Eh/α   predicted    -0.2571369E-03 ( -20.75%)
   displ. norm   :     0.4439375 α      lambda       -0.7142705E-03
   maximum displ.:     0.2469500 α      in ANC's #2, #5, #3, ...

........................................................................
.............................. CYCLE   36 ..............................
........................................................................
     Diagonalization            ...        0 min,  0.003 sec
 * total energy  :   -96.3833572 Eh     change       -0.5049424E-03 Eh
   gradient norm :     0.0131888 Eh/α   predicted    -0.4275241E-03 ( -15.33%)
   displ. norm   :     0.6176210 α      lambda       -0.6278451E-03
   maximum displ.:     0.3276219 α      in ANC's #2, #5, #3, ...

........................................................................
.............................. CYCLE   37 ..............................
........................................................................
     Diagonalization            ...        0 min,  0.003 sec
 * total energy  :   -96.3838249 Eh     change       -0.4677369E-03 Eh
   gradient norm :     0.0100637 Eh/α   predicted    -0.4336716E-03 (  -7.28%)
   displ. norm   :     0.5794097 α      lambda       -0.6072890E-03
   maximum displ.:     0.3183589 α      in ANC's #2, #5, #10, ...

........................................................................
.............................. CYCLE   38 ..............................
........................................................................
     Diagonalization            ...        0 min,  0.003 sec
 * total energy  :   -96.3842935 Eh     change       -0.4685767E-03 Eh
   gradient norm :     0.0123889 Eh/α   predicted    -0.4055885E-03 ( -13.44%)
   displ. norm   :     0.5569225 α      lambda       -0.7154987E-03
   maximum displ.:     0.3155759 α      in ANC's #2, #5, #6, ...

........................................................................
.............................. CYCLE   39 ..............................
........................................................................
     Diagonalization            ...        0 min,  0.003 sec
 * total energy  :   -96.3848131 Eh     change       -0.5196596E-03 Eh
   gradient norm :     0.0108500 Eh/α   predicted    -0.4687135E-03 (  -9.80%)
   displ. norm   :     0.7234231 α      lambda       -0.7312654E-03
   maximum displ.:     0.3857948 α      in ANC's #2, #5, #3, ...

........................................................................
.............................. CYCLE   40 ..............................
........................................................................
     Diagonalization            ...        0 min,  0.003 sec
 * total energy  :   -96.3852477 Eh     change       -0.4345957E-03 Eh
   gradient norm :     0.0155356 Eh/α   predicted    -0.5569864E-03 (  28.16%)
   displ. norm   :     0.3908953 α      lambda       -0.5142487E-03
   maximum displ.:     0.2140524 α      in ANC's #2, #10, #5, ...

........................................................................
.............................. CYCLE   41 ..............................
........................................................................
     Diagonalization            ...        0 min,  0.003 sec
 * total energy  :   -96.3855764 Eh     change       -0.3287221E-03 Eh
   gradient norm :     0.0091143 Eh/α   predicted    -0.2964155E-03 (  -9.83%)
   displ. norm   :     0.5896634 α      lambda       -0.4448374E-03
   maximum displ.:     0.3452273 α      in ANC's #2, #5, #6, ...

........................................................................
.............................. CYCLE   42 ..............................
........................................................................
     Diagonalization            ...        0 min,  0.003 sec
 * total energy  :   -96.3858162 Eh     change       -0.2397755E-03 Eh
   gradient norm :     0.0113201 Eh/α   predicted    -0.2997560E-03 (  25.02%)
   displ. norm   :     0.3195639 α      lambda       -0.5333553E-03
   maximum displ.:     0.1752933 α      in ANC's #2, #5, #20, ...
 * RMSD in coord.:     1.2859470 α      energy gain  -0.1364351E-01 Eh

generating ANC from model Hessian ...
Using Lindh-Hessian (1995)
 Shifting diagonal of input Hessian by   1.131570635175227E-002
 Lowest  eigenvalues of input Hessian
    0.010000    0.011240    0.000000    0.000000    0.000000    0.000000
    0.000000    0.000000    0.011344    0.011503    0.011737    0.011957
    0.012415    0.012469    0.012836    0.012908    0.013049    0.013105
 Highest eigenvalues
    2.050567    2.064168    2.084346    2.096467    2.097736    2.514020
 

........................................................................
.............................. CYCLE   43 ..............................
........................................................................
     Diagonalization            ...        0 min,  0.003 sec
 * total energy  :   -96.3860425 Eh     change       -0.2263245E-03 Eh
   gradient norm :     0.0126089 Eh/α   predicted     0.0000000E+00 (-100.00%)
   displ. norm   :     0.0864059 α      lambda       -0.3491413E-03
   maximum displ.:     0.0296714 α      in ANC's #20, #18, #23, ...

........................................................................
.............................. CYCLE   44 ..............................
........................................................................
     Diagonalization            ...        0 min,  0.003 sec
 * total energy  :   -96.3862375 Eh     change       -0.1949640E-03 Eh
   gradient norm :     0.0058706 Eh/α   predicted    -0.1758764E-03 (  -9.79%)
   displ. norm   :     0.1514582 α      lambda       -0.3267105E-03
   maximum displ.:     0.0629846 α      in ANC's #17, #19, #4, ...

........................................................................
.............................. CYCLE   45 ..............................
........................................................................
     Diagonalization            ...        0 min,  0.003 sec
 * total energy  :   -96.3861973 Eh     change        0.4021338E-04 Eh
   gradient norm :     0.0106175 Eh/α   predicted    -0.1671579E-03 (-515.68%)
   displ. norm   :     0.1139533 α      lambda       -0.4625689E-03
   maximum displ.:     0.0648874 α      in ANC's #24, #20, #3, ...

........................................................................
.............................. CYCLE   46 ..............................
........................................................................
     Diagonalization            ...        0 min,  0.003 sec
 * total energy  :   -96.3863046 Eh     change       -0.1073147E-03 Eh
   gradient norm :     0.0086823 Eh/α   predicted    -0.2342890E-03 ( 118.32%)
   displ. norm   :     0.1062897 α      lambda       -0.4034376E-03
   maximum displ.:     0.0559111 α      in ANC's #24, #1, #10, ...

........................................................................
.............................. CYCLE   47 ..............................
........................................................................
     Diagonalization            ...        0 min,  0.003 sec
 * total energy  :   -96.3864079 Eh     change       -0.1033090E-03 Eh
   gradient norm :     0.0039821 Eh/α   predicted    -0.2039989E-03 (  97.46%)
   displ. norm   :     0.1003990 α      lambda       -0.1832673E-03
   maximum displ.:     0.0419465 α      in ANC's #17, #1, #4, ...

........................................................................
.............................. CYCLE   48 ..............................
........................................................................
     Diagonalization            ...        0 min,  0.003 sec
 * total energy  :   -96.3865221 Eh     change       -0.1141303E-03 Eh
   gradient norm :     0.0021380 Eh/α   predicted    -0.9255792E-04 ( -18.90%)
   displ. norm   :     0.1735373 α      lambda       -0.1192287E-03
   maximum displ.:     0.0648555 α      in ANC's #3, #14, #17, ...

........................................................................
.............................. CYCLE   49 ..............................
........................................................................
     Diagonalization            ...        0 min,  0.003 sec
 * total energy  :   -96.3866080 Eh     change       -0.8592438E-04 Eh
   gradient norm :     0.0040201 Eh/α   predicted    -0.6141130E-04 ( -28.53%)
   displ. norm   :     0.3616755 α      lambda       -0.1884137E-03
   maximum displ.:     0.1479353 α      in ANC's #3, #14, #18, ...

........................................................................
.............................. CYCLE   50 ..............................
........................................................................
     Diagonalization            ...        0 min,  0.003 sec
 * total energy  :   -96.3867458 Eh     change       -0.1377935E-03 Eh
   gradient norm :     0.0053772 Eh/α   predicted    -0.1065297E-03 ( -22.69%)
   displ. norm   :     0.4328095 α      lambda       -0.2077920E-03
   maximum displ.:     0.1929867 α      in ANC's #3, #14, #18, ...

........................................................................
.............................. CYCLE   51 ..............................
........................................................................
     Diagonalization            ...        0 min,  0.003 sec
 * total energy  :   -96.3868852 Eh     change       -0.1394514E-03 Eh
   gradient norm :     0.0060947 Eh/α   predicted    -0.1233584E-03 ( -11.54%)
   displ. norm   :     0.3985588 α      lambda       -0.2298102E-03
   maximum displ.:     0.1931349 α      in ANC's #3, #14, #4, ...

........................................................................
.............................. CYCLE   52 ..............................
........................................................................
     Diagonalization            ...        0 min,  0.003 sec
 * total energy  :   -96.3870488 Eh     change       -0.1635480E-03 Eh
   gradient norm :     0.0055977 Eh/α   predicted    -0.1331621E-03 ( -18.58%)
   displ. norm   :     0.3874765 α      lambda       -0.2267455E-03
   maximum displ.:     0.1992772 α      in ANC's #3, #14, #4, ...

........................................................................
.............................. CYCLE   53 ..............................
........................................................................
     Diagonalization            ...        0 min,  0.003 sec
 * total energy  :   -96.3872167 Eh     change       -0.1678968E-03 Eh
   gradient norm :     0.0059448 Eh/α   predicted    -0.1303969E-03 ( -22.34%)
   displ. norm   :     0.5910322 α      lambda       -0.2263645E-03
   maximum displ.:     0.2914408 α      in ANC's #3, #4, #14, ...

........................................................................
.............................. CYCLE   54 ..............................
........................................................................
     Diagonalization            ...        0 min,  0.003 sec
 * total energy  :   -96.3873966 Eh     change       -0.1799182E-03 Eh
   gradient norm :     0.0051375 Eh/α   predicted    -0.1527233E-03 ( -15.12%)
   displ. norm   :     0.5000014 α      lambda       -0.2510162E-03
   maximum displ.:     0.2444230 α      in ANC's #3, #4, #5, ...

........................................................................
.............................. CYCLE   55 ..............................
........................................................................
     Diagonalization            ...        0 min,  0.003 sec
 * total energy  :   -96.3875585 Eh     change       -0.1619080E-03 Eh
   gradient norm :     0.0058810 Eh/α   predicted    -0.1568879E-03 (  -3.10%)
   displ. norm   :     0.5327030 α      lambda       -0.1534381E-03
   maximum displ.:     0.2551994 α      in ANC's #3, #4, #14, ...

........................................................................
.............................. CYCLE   56 ..............................
........................................................................
     Diagonalization            ...        0 min,  0.003 sec
 * total energy  :   -96.3876503 Eh     change       -0.9185148E-04 Eh
   gradient norm :     0.0059203 Eh/α   predicted    -0.9849326E-04 (   7.23%)
   displ. norm   :     0.2064456 α      lambda       -0.1281908E-03
   maximum displ.:     0.1020425 α      in ANC's #4, #5, #3, ...

........................................................................
.............................. CYCLE   57 ..............................
........................................................................
     Diagonalization            ...        0 min,  0.003 sec
 * total energy  :   -96.3877333 Eh     change       -0.8293093E-04 Eh
   gradient norm :     0.0049716 Eh/α   predicted    -0.6682805E-04 ( -19.42%)
   displ. norm   :     0.2981252 α      lambda       -0.8237007E-04
   maximum displ.:     0.1414016 α      in ANC's #4, #3, #5, ...

........................................................................
.............................. CYCLE   58 ..............................
........................................................................
     Diagonalization            ...        0 min,  0.003 sec
 * total energy  :   -96.3877963 Eh     change       -0.6301758E-04 Eh
   gradient norm :     0.0029967 Eh/α   predicted    -0.4484917E-04 ( -28.83%)
   displ. norm   :     0.2951796 α      lambda       -0.9616381E-04
   maximum displ.:     0.1365019 α      in ANC's #4, #5, #2, ...

........................................................................
.............................. CYCLE   59 ..............................
........................................................................
     Diagonalization            ...        0 min,  0.003 sec
 * total energy  :   -96.3878640 Eh     change       -0.6767508E-04 Eh
   gradient norm :     0.0030534 Eh/α   predicted    -0.5227666E-04 ( -22.75%)
   displ. norm   :     0.3212092 α      lambda       -0.7240898E-04
   maximum displ.:     0.1398218 α      in ANC's #4, #5, #2, ...

........................................................................
.............................. CYCLE   60 ..............................
........................................................................
     Diagonalization            ...        0 min,  0.003 sec
 * total energy  :   -96.3879203 Eh     change       -0.5628650E-04 Eh
   gradient norm :     0.0048279 Eh/α   predicted    -0.3994316E-04 ( -29.04%)
   displ. norm   :     0.3435479 α      lambda       -0.1137558E-03
   maximum displ.:     0.1568930 α      in ANC's #2, #5, #4, ...

........................................................................
.............................. CYCLE   61 ..............................
........................................................................
     Diagonalization            ...        0 min,  0.003 sec
 * total energy  :   -96.3880025 Eh     change       -0.8223366E-04 Eh
   gradient norm :     0.0066949 Eh/α   predicted    -0.6359441E-04 ( -22.67%)
   displ. norm   :     0.4631241 α      lambda       -0.1222124E-03
   maximum displ.:     0.1908922 α      in ANC's #5, #2, #4, ...

........................................................................
.............................. CYCLE   62 ..............................
........................................................................
     Diagonalization            ...        0 min,  0.003 sec
 * total energy  :   -96.3880899 Eh     change       -0.8739750E-04 Eh
   gradient norm :     0.0060084 Eh/α   predicted    -0.7421645E-04 ( -15.08%)
   displ. norm   :     0.3282754 α      lambda       -0.1537295E-03
   maximum displ.:     0.1344122 α      in ANC's #2, #10, #11, ...

........................................................................
.............................. CYCLE   63 ..............................
........................................................................
     Diagonalization            ...        0 min,  0.003 sec
 * total energy  :   -96.3881724 Eh     change       -0.8255800E-04 Eh
   gradient norm :     0.0038951 Eh/α   predicted    -0.8514995E-04 (   3.14%)
   displ. norm   :     0.3382721 α      lambda       -0.6941722E-04
   maximum displ.:     0.1499025 α      in ANC's #5, #2, #3, ...

........................................................................
.............................. CYCLE   64 ..............................
........................................................................
     Diagonalization            ...        0 min,  0.003 sec
 * total energy  :   -96.3882176 Eh     change       -0.4514732E-04 Eh
   gradient norm :     0.0039358 Eh/α   predicted    -0.3868460E-04 ( -14.31%)
   displ. norm   :     0.1510992 α      lambda       -0.6553163E-04
   maximum displ.:     0.0747699 α      in ANC's #5, #3, #1, ...

   *** GEOMETRY OPTIMIZATION CONVERGED AFTER 64 ITERATIONS ***

------------------------------------------------------------------------
 total energy gain   :        -0.3001974 Eh     -188.3767 kcal/mol
 total RMSD          :         2.3338696 a0        1.2350 Å
 total power (kW/mol):       -12.3151269 (step) -777.9774 (real)
------------------------------------------------------------------------

 ANCopt (total)                0 d,  0 h,  0 min,  1.013 sec
 optimizer setup                ...        0 min,  0.000 sec (  0.039%)
 model hessian                  ...        0 min,  0.074 sec (  7.264%)
 ANC generation                 ...        0 min,  0.006 sec (  0.577%)
 coordinate transformation      ...        0 min,  0.001 sec (  0.093%)
 single point calculation       ...        0 min,  0.912 sec ( 90.025%)
 optimization log               ...        0 min,  0.009 sec (  0.877%)
 hessian update                 ...        0 min,  0.001 sec (  0.095%)
 rational function              ...        0 min,  0.008 sec (  0.818%)

================
 final structure:
================
60
 xtb: 6.6.0 (8843059)
O           -2.16431859938113        1.02288395594021        4.15144713914071
C           -1.35974870879665        0.74318271897776        3.43548894971695
Rh          -0.02384314936709        0.31882205966789        2.14623572289984
P            1.59447735495578       -0.00128359024408        0.65440852952167
N            1.45083806089415       -0.53363188563338       -0.97039930484809
C            0.99053996631869        0.22403612846291       -2.02070491910871
C            0.83937124104317       -0.57040605057259       -3.11706904532808
C            1.20514188416305       -1.89284943045907       -2.72291454707631
C            1.56211784865908       -1.83193716492981       -1.40960814444598
N            2.87880382240520       -1.05569704216751        1.05889051049492
C            4.08990945712582       -1.23264289218397        0.42931273408344
C            4.78050816942666       -2.22505146425790        1.05582469993008
C            3.95660778870154       -2.69617944000337        2.12630100906540
C            2.81234532080532       -1.96224128140551        2.09532291491713
N            2.42076071748863        1.45737933625036        0.32144166801568
C            3.31238862631501        1.80214769948053       -0.66778731042959
C            3.65549900502862        3.11179780033550       -0.52287707617625
C            2.94018196339995        3.61207718250280        0.60962499673133
C            2.20264343858929        2.57915806642908        1.09360742476593
P           -1.55247981370806        0.15413332582362        0.56102697817576
N           -3.23083558049936        0.12053700341133        0.95456907438867
C           -4.13765239644377       -0.91008609679195        0.92703152396561
C           -5.30941257131816       -0.48876410761079        1.48330951147420
C           -5.11516725181563        0.86536263248835        1.89149893452235
C           -3.83421506545723        1.19494724552194        1.56478570414089
N           -1.68598123270238        1.34440515657269       -0.64719616138954
C           -2.62605095489981        1.51775025750521       -1.63691944433169
C           -2.38726185546044        2.69451573049811       -2.27763233139627
C           -1.25265384214088        3.29523664205838       -1.64482961543399
C           -0.86227333040151        2.44941309918418       -0.65457088087032
N           -1.48955027669196       -1.31769522157760       -0.29944810516944
C           -2.00543347987011       -1.75169095444278       -1.49718693110697
C           -1.75415915619179       -3.08341716399463       -1.63387366168171
C           -1.05053437503713       -3.50375836402882       -0.46144381362435
C           -0.90792601103089       -2.40267991596165        0.32184773396838
H            1.02771612435255        0.34697973436592        3.30746924800002
H            0.83651478209866        1.27959324900372       -1.90163797145815
H            0.50859110103531       -0.27308478046010       -4.09732833123870
H            1.19802808189097       -2.76491393395021       -3.35461718285395
H            1.89104461081852       -2.60949372687263       -0.74565196379548
H            4.35930733009886       -0.63706153210167       -0.42345725778628
H            5.76018829716773       -2.59537969662959        0.80488200770532
H            4.21090136389476       -3.48470943370175        2.81562195982602
H            1.92841305551819       -1.99876678414740        2.71055490714533
H            3.62013885483653        1.08578149655494       -1.40621767593756
H            4.33388124941606        3.67733070745902       -1.13858172949251
H            2.98810169998061        4.61761192130546        0.99228641119518
H            1.50653568741071        2.51855602786801        1.91983471602384
H           -3.87782921672436       -1.86050598056362        0.49890910477564
H           -6.21565480772048       -1.05900438578487        1.60253549703204
H           -5.84971755940783        1.49039001927881        2.37044744226053
H           -3.29020022728587        2.11341127909374        1.69322161857288
H           -3.39314991599698        0.78414672243832       -1.80202300884663
H           -2.93868620968649        3.11219951194503       -3.10301455502780
H           -0.81006888945295        4.24017973542593       -1.91110105393390
H           -0.07076163732386        2.52101560256335        0.07230097002289
H           -2.50729956561247       -1.07333940120491       -2.16080416726189
H           -2.02031578305874       -3.71288277821836       -2.46648533461200
H           -0.70282163282653       -4.50277025250843       -0.26018249104978
H           -0.43549480744600       -2.26305629619501        1.28552137336791
 
 Bond Distances (Angstroems)
 ---------------------------
O1-C2=1.1127         C2-O1=1.1127         C2-Rh3=1.9044        Rh3-C2=1.9044        Rh3-P4=2.2242        Rh3-P20=2.2083       
Rh3-H36=1.5669       P4-Rh3=2.2242        P4-N5=1.7158         P4-N10=1.7102        P4-N15=1.7092        N5-P4=1.7158         
N5-C6=1.3744         N5-C9=1.3751         C6-N5=1.3744         C6-C7=1.3624         C6-H37=1.0734        C7-C6=1.3624         
C7-C8=1.4276         C7-H38=1.0764        C8-C7=1.4276         C8-C9=1.3623         C8-H39=1.0768        C9-N5=1.3751         
C9-C8=1.3623         C9-H40=1.0741        N10-P4=1.7102        N10-C11=1.3764       N10-C14=1.3786       C11-N10=1.3764       
C11-C12=1.3617       C11-H41=1.0745       C12-C11=1.3617       C12-C13=1.4306       C12-H42=1.0770       C13-C12=1.4306       
C13-C14=1.3598       C13-H43=1.0778       C14-N10=1.3786       C14-C13=1.3598       C14-H44=1.0776       N15-P4=1.7092        
N15-C16=1.3757       N15-C19=1.3792       C16-N15=1.3757       C16-C17=1.3616       C16-H45=1.0739       C17-C16=1.3616       
C17-C18=1.4299       C17-H46=1.0766       C18-C17=1.4299       C18-C19=1.3584       C18-H47=1.0770       C19-N15=1.3792       
C19-C18=1.3584       C19-H48=1.0821       P20-Rh3=2.2083       P20-N21=1.7242       P20-N26=1.7013       P20-N31=1.7061       
N21-P20=1.7242       N21-C22=1.3730       N21-C25=1.3751       C22-N21=1.3730       C22-C23=1.3638       C22-H49=1.0743       
C23-C22=1.3638       C23-C24=1.4276       C23-H50=1.0773       C24-C23=1.4276       C24-C25=1.3624       C24-H51=1.0769       
C25-N21=1.3751       C25-C24=1.3624       C25-H52=1.0752       N26-P20=1.7013       N26-C27=1.3760       N26-C30=1.3783       
C27-N26=1.3760       C27-C28=1.3610       C27-H53=1.0742       C28-C27=1.3610       C28-C29=1.4313       C28-H54=1.0769       
C29-C28=1.4313       C29-C30=1.3596       C29-H55=1.0769       C30-N26=1.3783       C30-C29=1.3596       C30-H56=1.0770       
N31-P20=1.7061       N31-C32=1.3744       N31-C35=1.3789       C32-N31=1.3744       C32-C33=1.3621       C32-H57=1.0735       
C33-C32=1.3621       C33-C34=1.4305       C33-H58=1.0772       C34-C33=1.4305       C34-C35=1.3588       C34-H59=1.0768       
C35-N31=1.3789       C35-C34=1.3588       C35-H60=1.0823       H36-Rh3=1.5669       H37-C6=1.0734        H38-C7=1.0764        
H39-C8=1.0768        H40-C9=1.0741        H41-C11=1.0745       H42-C12=1.0770       H43-C13=1.0778       H44-C14=1.0776       
H45-C16=1.0739       H46-C17=1.0766       H47-C18=1.0770       H48-C19=1.0821       H49-C22=1.0743       H50-C23=1.0773       
H51-C24=1.0769       H52-C25=1.0752       H53-C27=1.0742       H54-C28=1.0769       H55-C29=1.0769       H56-C30=1.0770       
H57-C32=1.0735       H58-C33=1.0772       H59-C34=1.0768       H60-C35=1.0823       
 C  H  Rav=1.0765 sigma=0.0022  Rmin=1.0734  Rmax=1.0823    24
 C  C  Rav=1.3840 sigma=0.0323  Rmin=1.3584  Rmax=1.4313    18
 N  C  Rav=1.3763 sigma=0.0019  Rmin=1.3730  Rmax=1.3792    12
 O  C  Rav=1.1127 sigma=0.0000  Rmin=1.1127  Rmax=1.1127     1
 P  N  Rav=1.7111 sigma=0.0073  Rmin=1.7013  Rmax=1.7242     6
 Rh H  Rav=1.5669 sigma=0.0000  Rmin=1.5669  Rmax=1.5669     1
 Rh C  Rav=1.9044 sigma=0.0000  Rmin=1.9044  Rmax=1.9044     1
 Rh P  Rav=2.2163 sigma=0.0079  Rmin=2.2083  Rmax=2.2242     2
 
 selected bond angles (degree)
 --------------------
Rh3-C2-O1=177.19               P4-Rh3-C2=175.22               P20-Rh3-C2= 90.97              P20-Rh3-P4= 90.66              
H36-Rh3-C2= 88.00              H36-Rh3-P4= 90.65              H36-Rh3-P20=176.29             N5-P4-Rh3=128.24               
N10-P4-Rh3=118.46              N10-P4-N5= 95.48               N15-P4-Rh3=111.08              N15-P4-N5= 96.94               
N15-P4-N10=102.08              C6-N5-P4=125.50                C9-N5-P4=126.06                C9-N5-C6=107.67                
C7-C6-N5=109.31                H37-C6-N5=120.36               H37-C6-C7=130.30               C8-C7-C6=106.83                
H38-C7-C6=127.29               H38-C7-C8=125.88               C9-C8-C7=106.97                H39-C8-C7=125.91               
H39-C8-C9=127.12               C8-C9-N5=109.20                H40-C9-N5=120.72               H40-C9-C8=130.08               
C11-N10-P4=129.19              C14-N10-P4=123.16              C14-N10-C11=107.56             
 
 selected dihedral angles (degree)
 ---------------------------------
P4-Rh3-C2-O1= 68.72           P20-Rh3-C2-O1=318.78          H36-Rh3-C2-O1=142.34          N5-P4-Rh3-C2=237.93           
N5-P4-Rh3-P20=347.89          N5-P4-Rh3-H36=164.41          N10-P4-Rh3-C2=113.50          N10-P4-Rh3-P20=223.45         
N10-P4-Rh3-H36= 39.98         N15-P4-Rh3-C2=355.87          N15-P4-Rh3-P20=105.82         N15-P4-Rh3-H36=282.35         
C6-N5-P4-Rh3= 74.60           C6-N5-P4-N10=207.84           C6-N5-P4-N15=310.75           C9-N5-P4-Rh3=265.96           
C9-N5-P4-N10= 39.20           C9-N5-P4-N15=142.11           C7-C6-N5-P4=188.31            C7-C6-N5-C9=358.69            
H37-C6-N5-P4= 10.12           H37-C6-N5-C9=180.49           C8-C7-C6-N5=  0.89            C8-C7-C6-H37=178.85           
H38-C7-C6-N5=180.86           H38-C7-C6-H37=358.82          C9-C8-C7-C6=359.86            C9-C8-C7-H38=179.89           
H39-C8-C7-C6=179.98           H39-C8-C7-H38=  0.00          C8-C9-N5-P4=171.52            C8-C9-N5-C6=  1.21            
H40-C9-N5-P4=351.37           H40-C9-N5-C6=181.06           N5-C9-C8-C7=359.34            N5-C9-C8-H39=179.21           
H40-C9-C8-C7=179.51           H40-C9-C8-H39=359.38          C11-N10-P4-Rh3=192.82         C11-N10-P4-N5= 53.42          
C11-N10-P4-N15=315.11         C14-N10-P4-Rh3= 16.58         C14-N10-P4-N5=237.18          C14-N10-P4-N15=138.87         
 
 CMA Distance (Angstroems)
 ---------------------------
R(CMA):  3.0382
           -------------------------------------------------
          |                Final Singlepoint                |
           -------------------------------------------------

          ...................................................
          :                      SETUP                      :
          :.................................................:
          :  # basis functions                 208          :
          :  # atomic orbitals                 205          :
          :  # shells                          123          :
          :  # electrons                       180          :
          :  electronic temp.          300.0000000     K    :
          :  accuracy                    1.0000000          :
          :  -> integral cutoff          0.2500000E+02      :
          :  -> integral neglect         0.1000000E-07      :
          ...................................................
  Checking positiv definite overlap ...  done.
 

         #    Occupation            Energy/Eh            Energy/eV
      -------------------------------------------------------------
         1        2.0000           -0.7221924             -19.6519
       ...           ...                  ...                  ...
        84        2.0000           -0.4157646             -11.3135
        85        2.0000           -0.4152132             -11.2985
        86        2.0000           -0.4148383             -11.2883
        87        2.0000           -0.4145355             -11.2801
        88        2.0000           -0.4140388             -11.2666
        89        2.0000           -0.4114093             -11.1950
        90        2.0000           -0.3834286             -10.4336 (HOMO)
        91                         -0.2725552              -7.4166 (LUMO)
        92                         -0.2613387              -7.1114
        93                         -0.2595465              -7.0626
        94                         -0.2527285              -6.8771
        95                         -0.2491041              -6.7785
       ...                                ...                  ...
       205                          2.5882317              70.4294
      -------------------------------------------------------------
                  HL-Gap            0.1108734 Eh            3.0170 eV
             Fermi-level            0.0000000 Eh            0.0000 eV

 EHT (total)                   0 d,  0 h,  0 min,  0.015 sec
 EHT setup                      ...        0 min,  0.000 sec (  0.653%)
 Coordination number            ...        0 min,  0.000 sec (  1.353%)
 EEQ model density              ...        0 min,  0.000 sec (  1.464%)
 D4 Dispersion                  ...        0 min,  0.000 sec (  2.933%)
 Integral evaluation            ...        0 min,  0.003 sec ( 21.477%)
 Cholesky factorization         ...        0 min,  0.000 sec (  1.010%)
 Zeroth order Hamiltonian       ...        0 min,  0.003 sec ( 20.798%)
 Gradient calculation           ...        0 min,  0.007 sec ( 48.522%)

         :::::::::::::::::::::::::::::::::::::::::::::::::::::
         ::                     SUMMARY                     ::
         :::::::::::::::::::::::::::::::::::::::::::::::::::::
         :: total energy             -96.388217591043 Eh    ::
         :: gradient norm              0.003936307478 Eh/a0 ::
         :: HOMO-LUMO gap              3.017018013147 eV    ::
         ::.................................................::
         :: H0 energy                -97.370008672866 Eh    ::
         :: repulsion energy           1.529552789588 Eh    ::
         :: electrostat energy        -0.333986992217 Eh    ::
         :: -> Gsolv                   0.000000000000 Eh    ::
         ::    -> Gsasa                0.000000000000 Eh    ::
         ::    -> Gshift               0.000000000000 Eh    ::
         :: dispersion energy         -0.058125363094 Eh    ::
         :: short-range corr.         -0.155649352453 Eh    ::
         :: add. restraining           0.000000000000 Eh    ::
         :: total charge              -0.000000000000 e     ::
         :::::::::::::::::::::::::::::::::::::::::::::::::::::

           -------------------------------------------------
          |                Property Printout                |
           -------------------------------------------------

    * Orbital Energies and Occupations

         #    Occupation            Energy/Eh            Energy/eV
      -------------------------------------------------------------
         1        2.0000           -0.7221924             -19.6519
       ...           ...                  ...                  ...
        78        2.0000           -0.4291052             -11.6765
        79        2.0000           -0.4260521             -11.5935
        80        2.0000           -0.4257116             -11.5842
        81        2.0000           -0.4188524             -11.3976
        82        2.0000           -0.4177956             -11.3688
        83        2.0000           -0.4159947             -11.3198
        84        2.0000           -0.4157646             -11.3135
        85        2.0000           -0.4152132             -11.2985
        86        2.0000           -0.4148383             -11.2883
        87        2.0000           -0.4145355             -11.2801
        88        2.0000           -0.4140388             -11.2666
        89        2.0000           -0.4114093             -11.1950
        90        2.0000           -0.3834286             -10.4336 (HOMO)
        91                         -0.2725552              -7.4166 (LUMO)
        92                         -0.2613387              -7.1114
        93                         -0.2595465              -7.0626
        94                         -0.2527285              -6.8771
        95                         -0.2491041              -6.7785
        96                         -0.2457158              -6.6863
        97                         -0.2435096              -6.6262
        98                         -0.2237924              -6.0897
        99                         -0.2052714              -5.5857
       100                         -0.2046592              -5.5691
       101                         -0.2034732              -5.5368
       ...                                ...                  ...
       205                          2.5882317              70.4294
      -------------------------------------------------------------
                  HL-Gap            0.1108734 Eh            3.0170 eV
             Fermi-level            0.0000000 Eh            0.0000 eV

     #   Z          covCN         q      C6AA      α(0)
     1   8 O        0.857    -0.412    21.842     6.271
     2   6 C        1.812    -0.006    31.883     9.113
     3  45 Rh       3.815     0.469   263.008    31.818
     4  15 P        4.375     0.450   145.024    21.579
     5   7 N        2.789    -0.570    33.229     8.631
     6   6 C        3.137     0.237    24.114     8.014
     7   6 C        3.038    -0.144    33.334     9.441
     8   6 C        3.040    -0.140    33.204     9.422
     9   6 C        3.130     0.227    24.314     8.050
    10   7 N        2.787    -0.593    33.938     8.723
    11   6 C        3.103     0.247    23.988     8.002
    12   6 C        3.039    -0.158    33.728     9.496
    13   6 C        3.034    -0.128    32.880     9.376
    14   6 C        3.158     0.186    25.050     8.160
    15   7 N        2.788    -0.603    34.262     8.764
    16   6 C        3.087     0.229    24.366     8.067
    17   6 C        3.043    -0.151    33.514     9.466
    18   6 C        3.033    -0.131    32.960     9.388
    19   6 C        3.194     0.192    24.782     8.096
    20  15 P        4.462     0.461   144.626    21.549
    21   7 N        2.790    -0.574    33.358     8.648
    22   6 C        3.091     0.215    24.637     8.111
    23   6 C        3.042    -0.140    33.215     9.424
    24   6 C        3.036    -0.130    32.920     9.382
    25   6 C        3.180     0.252    23.688     7.924
    26   7 N        2.789    -0.597    34.069     8.739
    27   6 C        3.096     0.240    24.139     8.028
    28   6 C        3.041    -0.156    33.669     9.488
    29   6 C        3.034    -0.134    33.040     9.399
    30   6 C        3.190     0.185    24.951     8.127
    31   7 N        2.789    -0.592    33.933     8.722
    32   6 C        3.076     0.240    24.174     8.037
    33   6 C        3.045    -0.150    33.496     9.463
    34   6 C        3.031    -0.147    33.422     9.454
    35   6 C        3.238     0.214    24.065     7.939
    36   1 H        0.948    -0.073     4.709     3.392
    37   1 H        0.926     0.064     2.152     2.294
    38   1 H        0.926     0.094     1.844     2.123
    39   1 H        0.926     0.092     1.856     2.130
    40   1 H        0.926     0.059     2.211     2.325
    41   1 H        0.926     0.052     2.293     2.368
    42   1 H        0.926     0.097     1.815     2.107
    43   1 H        0.926     0.094     1.840     2.121
    44   1 H        0.926     0.025     2.661     2.551
    45   1 H        0.926     0.053     2.279     2.361
    46   1 H        0.926     0.094     1.838     2.120
    47   1 H        0.926     0.095     1.831     2.116
    48   1 H        0.925     0.013     2.835     2.633
    49   1 H        0.926     0.068     2.104     2.268
    50   1 H        0.926     0.098     1.800     2.098
    51   1 H        0.926     0.105     1.739     2.062
    52   1 H        0.926     0.066     2.130     2.282
    53   1 H        0.926     0.054     2.276     2.359
    54   1 H        0.926     0.095     1.831     2.116
    55   1 H        0.926     0.094     1.836     2.119
    56   1 H        0.926     0.036     2.509     2.477
    57   1 H        0.926     0.045     2.389     2.417
    58   1 H        0.926     0.092     1.859     2.132
    59   1 H        0.926     0.093     1.846     2.125
    60   1 H        0.925     0.005     2.966     2.693

 Mol. C6AA /au·bohr⁶  :      62658.406368
 Mol. C8AA /au·bohr⁸  :    1873401.941677
 Mol. α(0) /au        :        410.103079


Wiberg/Mayer (AO) data.
largest (>0.10) Wiberg bond orders for each atom

 ---------------------------------------------------------------------------
     #   Z sym  total        # sym  WBO       # sym  WBO       # sym  WBO
 ---------------------------------------------------------------------------
     1   8 O    2.775 --     2 C    2.536     3 Rh   0.181
     2   6 C    3.653 --     1 O    2.536     3 Rh   1.015
     3  45 Rh   4.391 --    20 P    1.028     2 C    1.015     4 P    0.966
                            36 H    0.792     1 O    0.181
     4  15 P    4.162 --     3 Rh   0.966    15 N    0.947    10 N    0.941
                             5 N    0.924
     5   7 N    3.509 --     6 C    1.185     9 C    1.185     4 P    0.924
     6   6 C    3.941 --     7 C    1.599     5 N    1.185    37 H    0.966
                             9 C    0.104
     7   6 C    3.968 --     6 C    1.599     8 C    1.275    38 H    0.973
     8   6 C    3.968 --     9 C    1.599     7 C    1.275    39 H    0.973
     9   6 C    3.941 --     8 C    1.599     5 N    1.185    40 H    0.971
                             6 C    0.104
    10   7 N    3.517 --    14 C    1.177    11 C    1.176     4 P    0.941
    11   6 C    3.941 --    12 C    1.610    10 N    1.176    41 H    0.967
                            14 C    0.106
    12   6 C    3.969 --    11 C    1.610    13 C    1.266    42 H    0.973
    13   6 C    3.970 --    14 C    1.612    12 C    1.266    43 H    0.973
    14   6 C    3.941 --    13 C    1.612    10 N    1.177    44 H    0.955
                            11 C    0.106
    15   7 N    3.519 --    16 C    1.178    19 C    1.172     4 P    0.947
    16   6 C    3.941 --    17 C    1.607    15 N    1.178    45 H    0.969
                            19 C    0.105
    17   6 C    3.967 --    16 C    1.607    18 C    1.266    46 H    0.973
    18   6 C    3.971 --    19 C    1.610    17 C    1.266    47 H    0.973
    19   6 C    3.939 --    18 C    1.610    15 N    1.172    48 H    0.928
                            16 C    0.105
    20  15 P    4.203 --     3 Rh   1.028    26 N    0.956    31 N    0.943
                            21 N    0.901
    21   7 N    3.509 --    22 C    1.190    25 C    1.189    20 P    0.901
    22   6 C    3.941 --    23 C    1.595    21 N    1.190    49 H    0.970
                            25 C    0.104
    23   6 C    3.967 --    22 C    1.595    24 C    1.278    50 H    0.973
    24   6 C    3.971 --    25 C    1.598    23 C    1.278    51 H    0.973
    25   6 C    3.941 --    24 C    1.598    21 N    1.189    52 H    0.968
                            22 C    0.104
    26   7 N    3.525 --    27 C    1.174    30 C    1.172    20 P    0.956
    27   6 C    3.941 --    28 C    1.611    26 N    1.174    53 H    0.968
                            30 C    0.104
    28   6 C    3.969 --    27 C    1.611    29 C    1.265    54 H    0.973
    29   6 C    3.971 --    30 C    1.608    28 C    1.265    55 H    0.974
    30   6 C    3.944 --    29 C    1.608    26 N    1.172    56 H    0.949
                            27 C    0.104
    31   7 N    3.522 --    32 C    1.179    35 C    1.174    20 P    0.943
    32   6 C    3.941 --    33 C    1.606    31 N    1.179    57 H    0.967
                            35 C    0.105
    33   6 C    3.967 --    32 C    1.606    34 C    1.267    58 H    0.973
    34   6 C    3.971 --    35 C    1.609    33 C    1.267    59 H    0.974
    35   6 C    3.939 --    34 C    1.609    31 N    1.174    60 H    0.931
                            32 C    0.105
    36   1 H    0.890 --     3 Rh   0.792
    37   1 H    0.984 --     6 C    0.966
    38   1 H    0.985 --     7 C    0.973
    39   1 H    0.985 --     8 C    0.973
    40   1 H    0.983 --     9 C    0.971
    41   1 H    0.980 --    11 C    0.967
    42   1 H    0.985 --    12 C    0.973
    43   1 H    0.985 --    13 C    0.973
    44   1 H    0.979 --    14 C    0.955
    45   1 H    0.982 --    16 C    0.969
    46   1 H    0.984 --    17 C    0.973
    47   1 H    0.985 --    18 C    0.973
    48   1 H    0.986 --    19 C    0.928
    49   1 H    0.982 --    22 C    0.970
    50   1 H    0.985 --    23 C    0.973
    51   1 H    0.985 --    24 C    0.973
    52   1 H    0.980 --    25 C    0.968
    53   1 H    0.981 --    27 C    0.968
    54   1 H    0.985 --    28 C    0.973
    55   1 H    0.985 --    29 C    0.974
    56   1 H    0.973 --    30 C    0.949
    57   1 H    0.982 --    32 C    0.967
    58   1 H    0.985 --    33 C    0.973
    59   1 H    0.985 --    34 C    0.974
    60   1 H    0.981 --    35 C    0.931
 ---------------------------------------------------------------------------

Topologies differ in total number of bonds
Writing topology from bond orders to xtbtopo.mol

 dipole moment from electron density (au)
     X       Y       Z   
  -1.8103   0.4894   0.3184  total (Debye):    4.835

           -------------------------------------------------
          |                Geometry Summary                 |
           -------------------------------------------------

      molecular mass/u    :      590.3595624
   center of mass at/Å    :       -0.0541257       0.0804877       0.4864976
  moments of inertia/u·Å² :        0.3353514E+04   0.5210054E+04   0.5302612E+04
rotational constants/cm⁻¹ :        0.5026856E-02   0.3235596E-02   0.3179119E-02

 * 65 selected distances

     #   Z          #   Z                                           value/Å
     1   8 O        2   6 C                                       1.1127272
     2   6 C        3  45 Rh                                      1.9044422
     3  45 Rh       4  15 P                                       2.2241803 (max)
     4  15 P        5   7 N                                       1.7158170
     5   7 N        6   6 C                                       1.3744371
     6   6 C        7   6 C                                       1.3623527
     7   6 C        8   6 C                                       1.4275864
     5   7 N        9   6 C                                       1.3750944
     8   6 C        9   6 C                                       1.3623202
     4  15 P       10   7 N                                       1.7102305
    10   7 N       11   6 C                                       1.3763921
    11   6 C       12   6 C                                       1.3617338
    12   6 C       13   6 C                                       1.4306269
    10   7 N       14   6 C                                       1.3785615
    13   6 C       14   6 C                                       1.3597653
     4  15 P       15   7 N                                       1.7091838
    15   7 N       16   6 C                                       1.3756598
    16   6 C       17   6 C                                       1.3615827
    17   6 C       18   6 C                                       1.4298669
    15   7 N       19   6 C                                       1.3792037
    18   6 C       19   6 C                                       1.3583535
     3  45 Rh      20  15 P                                       2.2083342
    20  15 P       21   7 N                                       1.7242050
    21   7 N       22   6 C                                       1.3730475
    22   6 C       23   6 C                                       1.3638107
    23   6 C       24   6 C                                       1.4275887
    21   7 N       25   6 C                                       1.3750596
    24   6 C       25   6 C                                       1.3624267
    20  15 P       26   7 N                                       1.7012858
    26   7 N       27   6 C                                       1.3759841
    27   6 C       28   6 C                                       1.3609962
    28   6 C       29   6 C                                       1.4313073
    26   7 N       30   6 C                                       1.3782569
    29   6 C       30   6 C                                       1.3595687
    20  15 P       31   7 N                                       1.7060649
    31   7 N       32   6 C                                       1.3744331
    32   6 C       33   6 C                                       1.3621002
    33   6 C       34   6 C                                       1.4305127
    31   7 N       35   6 C                                       1.3789443
    34   6 C       35   6 C                                       1.3587704
     3  45 Rh      36   1 H                                       1.5668547
     6   6 C       37   1 H                                       1.0733600 (min)
     7   6 C       38   1 H                                       1.0764404
     8   6 C       39   1 H                                       1.0768452
     9   6 C       40   1 H                                       1.0740694
    11   6 C       41   1 H                                       1.0744809
    12   6 C       42   1 H                                       1.0769812
[...]
  41600   41.60    -96.28634   0.1130  399.  461.   -96.18921
  41800   41.80    -96.28634   0.0884  399.  360.   -96.19134
  42000   42.00    -96.28635   0.1017  399.  414.   -96.19175
  42200   42.20    -96.28637   0.1068  399.  435.   -96.19269
  42400   42.40    -96.28638   0.0878  399.  358.   -96.19129
  42600   42.60    -96.28639   0.0893  399.  364.   -96.19437
  42800   42.80    -96.28639   0.1130  399.  460.   -96.18309
  43000   43.00    -96.28640   0.1009  399.  411.   -96.19185
  43200   43.20    -96.28643   0.1168  399.  476.   -96.19234
  43400   43.40    -96.28644   0.0973  399.  396.   -96.18785
  43600   43.60    -96.28647   0.0943  399.  384.   -96.18993
  43800   43.80    -96.28648   0.0992  399.  404.   -96.18977
  44000   44.00    -96.28648   0.0908  399.  370.   -96.19008
  44200   44.20    -96.28648   0.1024  399.  417.   -96.19496
  44400   44.40    -96.28648   0.0935  399.  381.   -96.18547
  44600   44.60    -96.28648   0.0912  399.  372.   -96.18993
  44800   44.80    -96.28650   0.1107  399.  451.   -96.18947
  45000   45.00    -96.28651   0.1041  399.  424.   -96.19523
block <Epot> / <T> :     -96.28831  400.     drift: -0.27D-03   Tbath : 400.
  45200   45.20    -96.28653   0.1170  399.  477.   -96.18975
  45400   45.40    -96.28654   0.1041  399.  424.   -96.19048
  45600   45.60    -96.28654   0.0871  399.  355.   -96.18543
  45800   45.80    -96.28653   0.1049  399.  427.   -96.19030
  46000   46.00    -96.28653   0.0957  399.  390.   -96.18923
  46200   46.20    -96.28655   0.1109  399.  452.   -96.19089
  46400   46.40    -96.28657   0.0882  399.  359.   -96.19024
  46600   46.60    -96.28658   0.1055  399.  430.   -96.19213
  46800   46.80    -96.28660   0.1057  399.  431.   -96.18769
  47000   47.00    -96.28661   0.0853  399.  348.   -96.18896
  47200   47.20    -96.28661   0.0965  399.  393.   -96.19199
  47400   47.40    -96.28661   0.0933  399.  380.   -96.18723
  47600   47.60    -96.28662   0.1180  399.  481.   -96.18617
  47800   47.80    -96.28663   0.1009  399.  411.   -96.19273
  48000   48.00    -96.28664   0.1017  399.  414.   -96.19185
  48200   48.20    -96.28665   0.0912  399.  372.   -96.18760
  48400   48.40    -96.28666   0.0932  399.  380.   -96.18941
  48600   48.60    -96.28668   0.1055  399.  430.   -96.19280
  48800   48.80    -96.28668   0.0934  399.  380.   -96.18860
  49000   49.00    -96.28669   0.0876  399.  357.   -96.19365
  49200   49.20    -96.28671   0.1077  399.  439.   -96.19240
  49400   49.40    -96.28671   0.1018  399.  415.   -96.19457
  49600   49.60    -96.28672   0.0975  399.  397.   -96.19302
  49800   49.80    -96.28672   0.0898  399.  366.   -96.19471
  50000   50.00    -96.28671   0.1108  399.  451.   -96.18966
block <Epot> / <T> :     -96.28853  399.     drift:  0.12D-03   Tbath : 400.
  50200   50.20    -96.28671   0.1138  399.  464.   -96.18848
  50400   50.40    -96.28671   0.0971  399.  396.   -96.19145
  50600   50.60    -96.28673   0.0984  399.  401.   -96.18614
  50800   50.80    -96.28674   0.0994  399.  405.   -96.18889
  51000   51.00    -96.28674   0.0969  399.  395.   -96.18937
  51200   51.20    -96.28675   0.0960  399.  391.   -96.18980
  51400   51.40    -96.28675   0.0918  399.  374.   -96.18632
  51600   51.60    -96.28675   0.0985  399.  402.   -96.18802
  51800   51.80    -96.28675   0.1083  399.  441.   -96.18822
  52000   52.00    -96.28675   0.1043  399.  425.   -96.18689
  52200   52.20    -96.28677   0.1047  399.  427.   -96.18697
  52400   52.40    -96.28676   0.0936  399.  382.   -96.18732
  52600   52.60    -96.28676   0.0933  399.  380.   -96.18785
  52800   52.80    -96.28675   0.1052  399.  429.   -96.18199
  53000   53.00    -96.28675   0.1093  399.  445.   -96.18732
  53200   53.20    -96.28676   0.0978  399.  399.   -96.19039
  53400   53.40    -96.28677   0.1073  399.  437.   -96.19106
  53600   53.60    -96.28677   0.1002  399.  408.   -96.19205
  53800   53.80    -96.28676   0.0876  399.  357.   -96.19115
  54000   54.00    -96.28675   0.1056  399.  430.   -96.18288
  54200   54.20    -96.28674   0.0863  399.  352.   -96.18767
  54400   54.40    -96.28674   0.0842  399.  343.   -96.18782
  54600   54.60    -96.28673   0.0966  399.  394.   -96.18333
  54800   54.80    -96.28674   0.0992  399.  404.   -96.19038
  55000   55.00    -96.28674   0.1017  399.  414.   -96.18707
block <Epot> / <T> :     -96.28701  400.     drift:  0.46D-03   Tbath : 400.
  55200   55.20    -96.28674   0.1043  399.  425.   -96.18906
  55400   55.40    -96.28675   0.0902  399.  368.   -96.18802
  55600   55.60    -96.28676   0.1054  399.  429.   -96.19437
  55800   55.80    -96.28677   0.1028  399.  419.   -96.19124
  56000   56.00    -96.28678   0.0904  399.  369.   -96.18971
  56200   56.20    -96.28679   0.1010  399.  412.   -96.19358
  56400   56.40    -96.28680   0.1020  399.  416.   -96.19151
  56600   56.60    -96.28680   0.0876  399.  357.   -96.19782
  56800   56.80    -96.28681   0.0875  399.  356.   -96.18904
  57000   57.00    -96.28680   0.0969  399.  395.   -96.18688
  57200   57.20    -96.28679   0.0967  399.  394.   -96.18776
  57400   57.40    -96.28678   0.1140  399.  465.   -96.18627
  57600   57.60    -96.28677   0.1012  399.  412.   -96.18798
  57800   57.80    -96.28676   0.0833  399.  339.   -96.18281
  58000   58.00    -96.28676   0.1023  399.  417.   -96.18879
  58200   58.20    -96.28676   0.0866  399.  353.   -96.18764
  58400   58.40    -96.28676   0.0937  399.  382.   -96.18627
  58600   58.60    -96.28675   0.0900  399.  367.   -96.19087
  58800   58.80    -96.28674   0.0927  399.  378.   -96.18786
  59000   59.00    -96.28674   0.1043  399.  425.   -96.18508
  59200   59.20    -96.28672   0.0839  399.  342.   -96.18718
  59400   59.40    -96.28672   0.0970  399.  395.   -96.18839
  59600   59.60    -96.28671   0.1199  399.  489.   -96.18143
  59800   59.80    -96.28671   0.0895  399.  365.   -96.19132
  60000   60.00    -96.28671   0.1034  399.  421.   -96.18279
block <Epot> / <T> :     -96.28635  400.     drift:  0.74D-03   Tbath : 400.
  60200   60.20    -96.28670   0.0990  399.  403.   -96.18555
  60400   60.40    -96.28671   0.1087  399.  443.   -96.18548
  60600   60.60    -96.28672   0.1041  399.  424.   -96.18515
  60800   60.80    -96.28673   0.1015  399.  414.   -96.18606
  61000   61.00    -96.28673   0.0945  399.  385.   -96.19076
  61200   61.20    -96.28673   0.0912  399.  371.   -96.18928
  61400   61.40    -96.28674   0.0866  399.  353.   -96.19096
  61600   61.60    -96.28674   0.1077  399.  439.   -96.18898
  61800   61.80    -96.28675   0.0944  399.  385.   -96.18908
  62000   62.00    -96.28675   0.1024  399.  417.   -96.18943
  62200   62.20    -96.28676   0.1054  399.  429.   -96.19097
  62400   62.40    -96.28676   0.1090  399.  444.   -96.18740
  62600   62.60    -96.28677   0.0930  399.  379.   -96.19170
  62800   62.80    -96.28678   0.1103  399.  450.   -96.19063
  63000   63.00    -96.28679   0.0960  399.  391.   -96.19123
  63200   63.20    -96.28679   0.1000  399.  407.   -96.19407
  63400   63.40    -96.28679   0.0991  399.  404.   -96.18791
  63600   63.60    -96.28680   0.0889  399.  362.   -96.19222
  63800   63.80    -96.28680   0.0955  399.  389.   -96.19064
  64000   64.00    -96.28680   0.1117  399.  455.   -96.18992
  64200   64.20    -96.28681   0.1039  399.  423.   -96.19471
  64400   64.40    -96.28681   0.1002  399.  408.   -96.18370
  64600   64.60    -96.28682   0.1043  399.  425.   -96.18437
  64800   64.80    -96.28682   0.1003  399.  409.   -96.18806
  65000   65.00    -96.28682   0.1095  399.  446.   -96.18716
block <Epot> / <T> :     -96.28820  401.     drift:  0.17D-03   Tbath : 400.
  65200   65.20    -96.28682   0.0932  399.  380.   -96.19382
  65400   65.40    -96.28683   0.1016  399.  414.   -96.18863
  65600   65.60    -96.28683   0.1002  399.  408.   -96.18773
  65800   65.80    -96.28684   0.1038  399.  423.   -96.19188
  66000   66.00    -96.28685   0.1110  399.  452.   -96.19080
  66200   66.20    -96.28685   0.0817  399.  333.   -96.18732
  66400   66.40    -96.28686   0.0874  399.  356.   -96.19083
  66600   66.60    -96.28685   0.0999  399.  407.   -96.18678
  66800   66.80    -96.28685   0.0937  399.  382.   -96.18985
  67000   67.00    -96.28685   0.1041  399.  424.   -96.18959
  67200   67.20    -96.28686   0.1088  399.  443.   -96.19022
  67400   67.40    -96.28686   0.0905  399.  369.   -96.19150
  67600   67.60    -96.28687   0.0893  399.  364.   -96.19375
  67800   67.80    -96.28688   0.0930  399.  379.   -96.19276
  68000   68.00    -96.28689   0.0958  399.  390.   -96.18904
  68200   68.20    -96.28688   0.0828  399.  337.   -96.19406
  68400   68.40    -96.28688   0.0943  399.  384.   -96.18806
  68600   68.60    -96.28687   0.0784  399.  320.   -96.19090
  68800   68.80    -96.28688   0.0894  399.  364.   -96.19049
  69000   69.00    -96.28687   0.0913  399.  372.   -96.18869
  69200   69.20    -96.28688   0.0909  399.  370.   -96.19104
  69400   69.40    -96.28688   0.0950  399.  387.   -96.18362
  69600   69.60    -96.28689   0.0928  399.  378.   -96.18548
  69800   69.80    -96.28689   0.0992  399.  404.   -96.19022
  70000   70.00    -96.28689   0.1053  399.  429.   -96.18903
block <Epot> / <T> :     -96.28780  400.     drift: -0.42D-03   Tbath : 400.
  70200   70.20    -96.28690   0.1014  399.  413.   -96.18737
  70400   70.40    -96.28690   0.0994  399.  405.   -96.18675
  70600   70.60    -96.28690   0.1099  399.  448.   -96.18865
  70800   70.80    -96.28690   0.1003  399.  409.   -96.18544
  71000   71.00    -96.28690   0.0858  399.  350.   -96.18942
  71200   71.20    -96.28691   0.1042  399.  424.   -96.19066
  71400   71.40    -96.28691   0.0959  399.  391.   -96.19150
  71600   71.60    -96.28691   0.0899  399.  366.   -96.18737
  71800   71.80    -96.28692   0.0979  399.  399.   -96.18928
  72000   72.00    -96.28691   0.1109  399.  452.   -96.18910
  72200   72.20    -96.28690   0.1015  399.  414.   -96.18287
  72400   72.40    -96.28690   0.0972  399.  396.   -96.18847
  72600   72.60    -96.28689   0.1040  399.  424.   -96.18429
  72800   72.80    -96.28688   0.1031  399.  420.   -96.19215
  73000   73.00    -96.28688   0.0912  399.  372.   -96.18725
  73200   73.20    -96.28687   0.1098  399.  447.   -96.18944
  73400   73.40    -96.28686   0.1081  399.  441.   -96.18257
  73600   73.60    -96.28686   0.1163  399.  474.   -96.18654
  73800   73.80    -96.28686   0.0959  399.  391.   -96.18425
  74000   74.00    -96.28686   0.0990  399.  403.   -96.18829
  74200   74.20    -96.28685   0.1001  399.  408.   -96.18616
  74400   74.40    -96.28685   0.1032  399.  421.   -96.18753
  74600   74.60    -96.28684   0.0926  399.  377.   -96.18405
  74800   74.80    -96.28683   0.1041  399.  424.   -96.18303
  75000   75.00    -96.28684   0.1040  399.  424.   -96.18863
block <Epot> / <T> :     -96.28606  399.     drift:  0.13D-03   Tbath : 400.
  75200   75.20    -96.28684   0.0914  399.  372.   -96.18690
  75400   75.40    -96.28684   0.0963  399.  392.   -96.18635
  75600   75.60    -96.28684   0.1089  399.  444.   -96.18693
  75800   75.80    -96.28684   0.0853  399.  347.   -96.19116
  76000   76.00    -96.28684   0.0996  399.  406.   -96.19053
  76200   76.20    -96.28685   0.1046  399.  426.   -96.19128
  76400   76.40    -96.28685   0.1007  399.  410.   -96.18848
  76600   76.60    -96.28686   0.0921  399.  375.   -96.18810
  76800   76.80    -96.28686   0.0954  399.  389.   -96.19161
  77000   77.00    -96.28685   0.0923  399.  376.   -96.18791
  77200   77.20    -96.28686   0.0994  399.  405.   -96.19385
  77400   77.40    -96.28687   0.1054  399.  429.   -96.18948
  77600   77.60    -96.28687   0.0994  399.  405.   -96.18899
  77800   77.80    -96.28688   0.1086  399.  443.   -96.18993
  78000   78.00    -96.28689   0.0961  399.  392.   -96.18819
  78200   78.20    -96.28689   0.0936  399.  381.   -96.19051
  78400   78.40    -96.28690   0.0871  399.  355.   -96.19371
  78600   78.60    -96.28690   0.0862  399.  351.   -96.19204
  78800   78.80    -96.28689   0.0957  399.  390.   -96.18761
  79000   79.00    -96.28690   0.1045  399.  426.   -96.19086
  79200   79.20    -96.28690   0.0948  399.  386.   -96.19413
  79400   79.40    -96.28691   0.1018  399.  415.   -96.19217
  79600   79.60    -96.28692   0.1053  399.  429.   -96.18637
  79800   79.80    -96.28692   0.0962  399.  392.   -96.19325
  80000   80.00    -96.28693   0.1015  399.  414.   -96.19357
block <Epot> / <T> :     -96.28839  402.     drift:  0.12D-03   Tbath : 400.
  80200   80.20    -96.28693   0.0938  399.  382.   -96.18944
  80400   80.40    -96.28694   0.1056  399.  430.   -96.18992
  80600   80.60    -96.28695   0.0964  399.  393.   -96.18947
  80800   80.80    -96.28695   0.1047  399.  426.   -96.19199
  81000   81.00    -96.28696   0.1052  399.  429.   -96.19403
  81200   81.20    -96.28697   0.0970  399.  395.   -96.19212
  81400   81.40    -96.28697   0.0968  399.  395.   -96.18755
  81600   81.60    -96.28698   0.1037  399.  422.   -96.19339
  81800   81.80    -96.28698   0.1119  399.  456.   -96.19094
  82000   82.00    -96.28700   0.0892  400.  364.   -96.19305
  82200   82.20    -96.28701   0.0945  400.  385.   -96.19068
  82400   82.40    -96.28702   0.0900  400.  367.   -96.19448
  82600   82.60    -96.28702   0.0932  400.  380.   -96.19232
  82800   82.80    -96.28702   0.0982  399.  400.   -96.19064
  83000   83.00    -96.28703   0.0947  399.  386.   -96.18858
  83200   83.20    -96.28704   0.1015  399.  413.   -96.19296
  83400   83.40    -96.28705   0.0858  400.  350.   -96.19014
  83600   83.60    -96.28705   0.0968  399.  394.   -96.19209
  83800   83.80    -96.28706   0.0788  399.  321.   -96.19211
  84000   84.00    -96.28706   0.1039  399.  423.   -96.19133
  84200   84.20    -96.28706   0.0995  399.  405.   -96.18869
  84400   84.40    -96.28706   0.0823  399.  335.   -96.19606
  84600   84.60    -96.28707   0.1056  399.  430.   -96.18801
  84800   84.80    -96.28707   0.0925  399.  377.   -96.18933
  85000   85.00    -96.28708   0.0947  399.  386.   -96.19182
block <Epot> / <T> :     -96.28933  399.     drift: -0.69D-03   Tbath : 400.
  85200   85.20    -96.28707   0.1009  399.  411.   -96.19011
  85400   85.40    -96.28707   0.0992  399.  404.   -96.18583
  85600   85.60    -96.28707   0.0820  399.  334.   -96.18972
  85800   85.80    -96.28707   0.1044  399.  426.   -96.19130
  86000   86.00    -96.28707   0.0898  399.  366.   -96.19172
  86200   86.20    -96.28706   0.0911  399.  371.   -96.18857
  86400   86.40    -96.28706   0.0931  399.  379.   -96.19061
  86600   86.60    -96.28706   0.0907  399.  370.   -96.19001
  86800   86.80    -96.28706   0.0970  399.  395.   -96.18842
  87000   87.00    -96.28706   0.0918  399.  374.   -96.19347
  87200   87.20    -96.28707   0.1022  399.  416.   -96.18843
  87400   87.40    -96.28707   0.1016  399.  414.   -96.19161
  87600   87.60    -96.28707   0.0966  399.  394.   -96.18905
  87800   87.80    -96.28707   0.0936  399.  381.   -96.19301
  88000   88.00    -96.28707   0.1008  399.  411.   -96.18906
  88200   88.20    -96.28707   0.0993  399.  405.   -96.18360
  88400   88.40    -96.28707   0.1039  399.  423.   -96.19069
  88600   88.60    -96.28707   0.0899  399.  366.   -96.18947
  88800   88.80    -96.28706   0.0958  399.  390.   -96.19154
  89000   89.00    -96.28707   0.1004  399.  409.   -96.18813
  89200   89.20    -96.28707   0.1085  399.  442.   -96.18985
  89400   89.40    -96.28707   0.0990  399.  403.   -96.18972
  89600   89.60    -96.28708   0.0973  400.  396.   -96.18982
  89800   89.80    -96.28708   0.0965  400.  393.   -96.19203
  90000   90.00    -96.28709   0.0911  400.  371.   -96.18928
block <Epot> / <T> :     -96.28732  400.     drift: -0.47D-03   Tbath : 400.
  90200   90.20    -96.28709   0.1009  400.  411.   -96.18699
  90400   90.40    -96.28710   0.0855  400.  348.   -96.19206
  90600   90.60    -96.28710   0.0983  400.  401.   -96.19142
  90800   90.80    -96.28710   0.0906  400.  369.   -96.18759
  91000   91.00    -96.28711   0.0992  400.  404.   -96.19478
  91200   91.20    -96.28711   0.0919  400.  375.   -96.18752
  91400   91.40    -96.28712   0.1028  400.  419.   -96.18452
  91600   91.60    -96.28712   0.0995  400.  405.   -96.18839
  91800   91.80    -96.28711   0.1017  399.  414.   -96.19196
  92000   92.00    -96.28712   0.1039  400.  423.   -96.18643
  92200   92.20    -96.28712   0.0935  400.  381.   -96.18727
  92400   92.40    -96.28712   0.0870  400.  354.   -96.19009
  92600   92.60    -96.28713   0.0976  400.  398.   -96.18891
  92800   92.80    -96.28713   0.0934  400.  380.   -96.19291
  93000   93.00    -96.28713   0.0910  400.  371.   -96.19076
  93200   93.20    -96.28713   0.1081  399.  441.   -96.18906
  93400   93.40    -96.28714   0.0992  400.  404.   -96.18465
  93600   93.60    -96.28714   0.1009  400.  411.   -96.18741
  93800   93.80    -96.28714   0.0930  400.  379.   -96.18685
  94000   94.00    -96.28713   0.0925  399.  377.   -96.19143
  94200   94.20    -96.28712   0.0719  399.  293.   -96.18717
  94400   94.40    -96.28711   0.0947  399.  386.   -96.18628
  94600   94.60    -96.28710   0.0892  399.  364.   -96.18894
  94800   94.80    -96.28709   0.1021  399.  416.   -96.18945
  95000   95.00    -96.28709   0.1050  399.  428.   -96.18600
block <Epot> / <T> :     -96.28714  398.     drift:  0.57D-03   Tbath : 400.
  95200   95.20    -96.28710   0.1008  399.  411.   -96.19006
  95400   95.40    -96.28710   0.0956  399.  390.   -96.18493
  95600   95.60    -96.28710   0.1104  399.  450.   -96.19048
  95800   95.80    -96.28710   0.0900  400.  367.   -96.18878
  96000   96.00    -96.28709   0.0875  399.  356.   -96.18824
  96200   96.20    -96.28707   0.0903  399.  368.   -96.18169
  96400   96.40    -96.28706   0.0844  399.  344.   -96.18891
  96600   96.60    -96.28706   0.0926  399.  377.   -96.19060
  96800   96.80    -96.28706   0.1101  399.  449.   -96.18899
  97000   97.00    -96.28706   0.1053  399.  429.   -96.18703
  97200   97.20    -96.28706   0.0935  399.  381.   -96.18715
  97400   97.40    -96.28706   0.1015  399.  414.   -96.18555
  97600   97.60    -96.28705   0.1055  399.  430.   -96.18404
  97800   97.80    -96.28705   0.1113  399.  454.   -96.18334
  98000   98.00    -96.28705   0.0898  400.  366.   -96.18725
  98200   98.20    -96.28705   0.1104  400.  450.   -96.19091
  98400   98.40    -96.28706   0.1231  400.  502.   -96.18962
  98600   98.60    -96.28706   0.1063  400.  433.   -96.19206
  98800   98.80    -96.28706   0.0987  400.  402.   -96.19007
  99000   99.00    -96.28707   0.1205  400.  491.   -96.18701
  99200   99.20    -96.28707   0.0943  400.  384.   -96.18918
  99400   99.40    -96.28708   0.1101  400.  449.   -96.19491
  99600   99.60    -96.28709   0.0894  400.  364.   -96.19129
  99800   99.80    -96.28709   0.1040  400.  424.   -96.18822
 average properties 
 Epot               :  -96.2870901973196     
 Epot (accurate SCC):  -96.2880702392320     
 Ekin               :  9.806381954263575E-002
 Etot               :  -96.1890263777770     
 T                  :   399.563022398742     
 normal exit of md()

------------------------------------------------------------------------
 * finished run on 2024/03/26 at 15:20:01.831     
------------------------------------------------------------------------
 total:
 * wall-time:     0 d,  0 h, 23 min, 47.006 sec
 *  cpu-time:     0 d,  1 h, 35 min,  6.220 sec
 * ratio c/w:     3.999 speedup
 SCF:
 * wall-time:     0 d,  0 h,  0 min,  0.025 sec
 *  cpu-time:     0 d,  0 h,  0 min,  0.100 sec
 * ratio c/w:     3.990 speedup
 ANC optimizer:
 * wall-time:     0 d,  0 h,  0 min,  1.034 sec
 *  cpu-time:     0 d,  0 h,  0 min,  4.130 sec
 * ratio c/w:     3.994 speedup
 MD:
 * wall-time:     0 d,  0 h, 23 min, 45.919 sec
 *  cpu-time:     0 d,  1 h, 35 min,  1.900 sec
 * ratio c/w:     3.999 speedup

