0-0-olefin                                                              
Freq      RB3LYP                                                      6-31G(d,p)          
Number of atoms                            I               18
Info1-9                                    I   N=           9
          27          27        1002           0           0         100
           6          18        -502
Full Title                                 C   N=           1
0-0-olefin  
Route                                      C   N=           3
# opt freq b3lyp/6-31g** em=gd3bj   
Charge                                     I                0
Multiplicity                               I                1
Number of electrons                        I               48
Number of alpha electrons                  I               24
Number of beta electrons                   I               24
Number of basis functions                  I              150
Number of independent functions            I              150
Number of point charges in /Mol/           I                0
Number of translation vectors              I                0
Atomic numbers                             I   N=          18
           6           6           6           6           6           6
           1           1           1           1           1           1
           1           1           1           1           1           1
Nuclear charges                            R   N=          18
  6.00000000E+00  6.00000000E+00  6.00000000E+00  6.00000000E+00  6.00000000E+00
  6.00000000E+00  1.00000000E+00  1.00000000E+00  1.00000000E+00  1.00000000E+00
  1.00000000E+00  1.00000000E+00  1.00000000E+00  1.00000000E+00  1.00000000E+00
  1.00000000E+00  1.00000000E+00  1.00000000E+00
Current cartesian coordinates              R   N=          54
  4.69776564E+00 -1.75727959E+00 -2.03112255E-01  3.31815403E+00  6.27865397E-02
  8.57578713E-01  1.66904637E+00  1.90372237E+00 -5.40843162E-01 -1.13773417E+00
  1.70874675E+00  2.05531211E-01 -2.34888507E+00 -8.19262252E-01 -5.10116415E-01
 -5.13010827E+00 -9.90418941E-01  2.58208993E-01  4.73133098E+00 -2.02599935E+00
 -2.24005307E+00  5.84773455E+00 -3.03700465E+00  9.14865333E-01  3.33000351E+00
  2.59274344E-01  2.91053860E+00  2.32512843E+00  3.83546193E+00 -1.53275103E-01
  1.86940457E+00  1.60460081E+00 -2.58280575E+00 -2.18432787E+00  3.25551626E+00
 -6.97278209E-01 -1.32259705E+00  2.00503903E+00  2.25295361E+00 -2.17115822E+00
 -1.09640217E+00 -2.55974745E+00 -1.27830403E+00 -2.36105407E+00  3.66791482E-01
 -5.35085447E+00 -7.81056928E-01  2.30670089E+00 -6.25002062E+00  5.00899085E-01
 -6.42313675E-01 -5.95577093E+00 -2.80904356E+00 -2.79859171E-01
Number of symbols in /Mol/                 I                0
Int Atom Types                             I   N=          18
           0           0           0           0           0           0
           0           0           0           0           0           0
           0           0           0           0           0           0
Force Field                                I                0
Atom Types                                 C   N=          18
                                                            
                                                            
                                                            
                                    
MM charges                                 R   N=          18
  0.00000000E+00  0.00000000E+00  0.00000000E+00  0.00000000E+00  0.00000000E+00
  0.00000000E+00  0.00000000E+00  0.00000000E+00  0.00000000E+00  0.00000000E+00
  0.00000000E+00  0.00000000E+00  0.00000000E+00  0.00000000E+00  0.00000000E+00
  0.00000000E+00  0.00000000E+00  0.00000000E+00
Integer atomic weights                     I   N=          18
          12          12          12          12          12          12
           1           1           1           1           1           1
           1           1           1           1           1           1
Real atomic weights                        R   N=          18
  1.20000000E+01  1.20000000E+01  1.20000000E+01  1.20000000E+01  1.20000000E+01
  1.20000000E+01  1.00782504E+00  1.00782504E+00  1.00782504E+00  1.00782504E+00
  1.00782504E+00  1.00782504E+00  1.00782504E+00  1.00782504E+00  1.00782504E+00
  1.00782504E+00  1.00782504E+00  1.00782504E+00
Atom fragment info                         I   N=          18
           0           0           0           0           0           0
           0           0           0           0           0           0
           0           0           0           0           0           0
Atom residue num                           I   N=          18
           0           0           0           0           0           0
           0           0           0           0           0           0
           0           0           0           0           0           0
Nuclear spins                              I   N=          18
           0           0           0           0           0           0
           1           1           1           1           1           1
           1           1           1           1           1           1
Nuclear ZEff                               R   N=          18
 -3.60000000E+00 -3.60000000E+00 -3.60000000E+00 -3.60000000E+00 -3.60000000E+00
 -3.60000000E+00 -1.00000000E+00 -1.00000000E+00 -1.00000000E+00 -1.00000000E+00
 -1.00000000E+00 -1.00000000E+00 -1.00000000E+00 -1.00000000E+00 -1.00000000E+00
 -1.00000000E+00 -1.00000000E+00 -1.00000000E+00
Nuclear ZNuc                               R   N=          18
  6.00000000E+00  6.00000000E+00  6.00000000E+00  6.00000000E+00  6.00000000E+00
  6.00000000E+00  1.00000000E+00  1.00000000E+00  1.00000000E+00  1.00000000E+00
  1.00000000E+00  1.00000000E+00  1.00000000E+00  1.00000000E+00  1.00000000E+00
  1.00000000E+00  1.00000000E+00  1.00000000E+00
Nuclear QMom                               R   N=          18
  0.00000000E+00  0.00000000E+00  0.00000000E+00  0.00000000E+00  0.00000000E+00
  0.00000000E+00  0.00000000E+00  0.00000000E+00  0.00000000E+00  0.00000000E+00
  0.00000000E+00  0.00000000E+00  0.00000000E+00  0.00000000E+00  0.00000000E+00
  0.00000000E+00  0.00000000E+00  0.00000000E+00
Nuclear GFac                               R   N=          18
  0.00000000E+00  0.00000000E+00  0.00000000E+00  0.00000000E+00  0.00000000E+00
  0.00000000E+00  2.79284600E+00  2.79284600E+00  2.79284600E+00  2.79284600E+00
  2.79284600E+00  2.79284600E+00  2.79284600E+00  2.79284600E+00  2.79284600E+00
  2.79284600E+00  2.79284600E+00  2.79284600E+00
MicOpt                                     I   N=          18
          -1          -1          -1          -1          -1          -1
          -1          -1          -1          -1          -1          -1
          -1          -1          -1          -1          -1          -1
Number of residues                         I                0
Number of secondary structures             I                0
Redundant internal dimensions              I   N=           4
          84          17          30          37
Redundant internal coordinate indices      I   N=         336
           1           2           0           0           1           7
           0           0           1           8           0           0
           2           3           0           0           2           9
           0           0           3           4           0           0
           3          10           0           0           3          11
           0           0           4           5           0           0
           4          12           0           0           4          13
           0           0           5           6           0           0
           5          14           0           0           5          15
           0           0           6          16           0           0
           6          17           0           0           6          18
           0           0           2           1           7           0
           2           1           8           0           7           1
           8           0           1           2           3           0
           1           2           9           0           3           2
           9           0           2           3           4           0
           2           3          10           0           2           3
          11           0           4           3          10           0
           4           3          11           0          10           3
          11           0           3           4           5           0
           3           4          12           0           3           4
          13           0           5           4          12           0
           5           4          13           0          12           4
          13           0           4           5           6           0
           4           5          14           0           4           5
          15           0           6           5          14           0
           6           5          15           0          14           5
          15           0           5           6          16           0
           5           6          17           0           5           6
          18           0          16           6          17           0
          16           6          18           0          17           6
          18           0           7           1           2           3
           7           1           2           9           8           1
           2           3           8           1           2           9
           1           2           3           4           1           2
           3          10           1           2           3          11
           9           2           3           4           9           2
           3          10           9           2           3          11
           2           3           4           5           2           3
           4          12           2           3           4          13
          10           3           4           5          10           3
           4          12          10           3           4          13
          11           3           4           5          11           3
           4          12          11           3           4          13
           3           4           5           6           3           4
           5          14           3           4           5          15
          12           4           5           6          12           4
           5          14          12           4           5          15
          13           4           5           6          13           4
           5          14          13           4           5          15
           4           5           6          16           4           5
           6          17           4           5           6          18
          14           5           6          16          14           5
           6          17          14           5           6          18
          15           5           6          16          15           5
           6          17          15           5           6          18
Redundant internal coordinates             R   N=          84
  2.51814103E+00  2.05486371E+00  2.05182811E+00  2.83975079E+00  2.06237537E+00
  2.91086021E+00  2.07660069E+00  2.07345806E+00  2.89307234E+00  2.07434788E+00
  2.07699347E+00  2.89047073E+00  2.07590480E+00  2.07177055E+00  2.07096123E+00
  2.07103216E+00  2.06848536E+00  2.11883611E+00  2.12745029E+00  2.03688864E+00
  2.18865693E+00  2.07717125E+00  2.01725159E+00  1.97171876E+00  1.90463191E+00
  1.91275026E+00  1.89557386E+00  1.91349211E+00  1.86238077E+00  1.98097417E+00
  1.90176396E+00  1.90606927E+00  1.90995430E+00  1.90841030E+00  1.85224748E+00
  1.97013005E+00  1.90186182E+00  1.90630879E+00  1.91444218E+00  1.91839391E+00
  1.84867389E+00  1.93853428E+00  1.94130873E+00  1.94657025E+00  1.87513789E+00
  1.87930668E+00  1.87983922E+00  1.00720058E-02  3.13532210E+00 -3.13655171E+00
 -1.13016201E-02  2.07382324E+00 -2.09890837E+00 -6.53603755E-02 -1.05192469E+00
  1.05852900E+00  3.09207700E+00 -1.13401541E+00  3.01620780E+00  1.00011285E+00
  3.03357793E+00  9.00615838E-01 -1.11547912E+00  1.00475411E+00 -1.12820798E+00
  3.13888237E+00  3.13512643E+00 -1.01660355E+00  9.95418185E-01 -1.01964660E+00
  1.11180872E+00  3.12383046E+00  1.00229636E+00  3.13375168E+00 -1.13741189E+00
 -1.04946305E+00  1.03821282E+00  3.13725127E+00  3.10935072E+00 -1.08615871E+00
  1.01287973E+00  1.08347617E+00 -3.11203327E+00 -1.01299482E+00
ZRed-IntVec                                I   N=          84
           0           0           0           0           0           0
           0           0           0           0           0           0
           0           0           0           0           0           0
           0           0           0           0           0           0
           0           0           0           0           0           0
           0           0           0           0           0           0
           0           0           0           0           0           0
           0           0           0           0           0           0
           0           0           0           0           0           0
           0           0           0           0           0           0
           0           0           0           0           0           0
           0           0           0           0           0           0
           0           0           0           0           0           0
           0           0           0           0           0           0
ZRed-FPVec                                 R   N=          84
  0.00000000E+00  0.00000000E+00  0.00000000E+00  0.00000000E+00  0.00000000E+00
  0.00000000E+00  0.00000000E+00  0.00000000E+00  0.00000000E+00  0.00000000E+00
  0.00000000E+00  0.00000000E+00  0.00000000E+00  0.00000000E+00  0.00000000E+00
  0.00000000E+00  0.00000000E+00  0.00000000E+00  0.00000000E+00  0.00000000E+00
  0.00000000E+00  0.00000000E+00  0.00000000E+00  0.00000000E+00  0.00000000E+00
  0.00000000E+00  0.00000000E+00  0.00000000E+00  0.00000000E+00  0.00000000E+00
  0.00000000E+00  0.00000000E+00  0.00000000E+00  0.00000000E+00  0.00000000E+00
  0.00000000E+00  0.00000000E+00  0.00000000E+00  0.00000000E+00  0.00000000E+00
  0.00000000E+00  0.00000000E+00  0.00000000E+00  0.00000000E+00  0.00000000E+00
  0.00000000E+00  0.00000000E+00  0.00000000E+00  0.00000000E+00  0.00000000E+00
  0.00000000E+00  0.00000000E+00  0.00000000E+00  0.00000000E+00  0.00000000E+00
  0.00000000E+00  0.00000000E+00  0.00000000E+00  0.00000000E+00  0.00000000E+00
  0.00000000E+00  0.00000000E+00  0.00000000E+00  0.00000000E+00  0.00000000E+00
  0.00000000E+00  0.00000000E+00  0.00000000E+00  0.00000000E+00  0.00000000E+00
  0.00000000E+00  0.00000000E+00  0.00000000E+00  0.00000000E+00  0.00000000E+00
  0.00000000E+00  0.00000000E+00  0.00000000E+00  0.00000000E+00  0.00000000E+00
  0.00000000E+00  0.00000000E+00  0.00000000E+00  0.00000000E+00
ZRed-Constraint1                           R   N=          84
  2.51814103E+00  2.05486371E+00  2.05182811E+00  2.83975079E+00  2.06237537E+00
  2.91086021E+00  2.07660069E+00  2.07345806E+00  2.89307234E+00  2.07434788E+00
  2.07699347E+00  2.89047073E+00  2.07590480E+00  2.07177055E+00  2.07096123E+00
  2.07103216E+00  2.06848536E+00  2.11883611E+00  2.12745029E+00  2.03688864E+00
  2.18865693E+00  2.07717125E+00  2.01725159E+00  1.97171876E+00  1.90463191E+00
  1.91275026E+00  1.89557386E+00  1.91349211E+00  1.86238077E+00  1.98097417E+00
  1.90176396E+00  1.90606927E+00  1.90995430E+00  1.90841030E+00  1.85224748E+00
  1.97013005E+00  1.90186182E+00  1.90630879E+00  1.91444218E+00  1.91839391E+00
  1.84867389E+00  1.93853428E+00  1.94130873E+00  1.94657025E+00  1.87513789E+00
  1.87930668E+00  1.87983922E+00  1.00720058E-02  3.13532210E+00 -3.13655171E+00
 -1.13016201E-02  2.07382324E+00 -2.09890837E+00 -6.53603755E-02 -1.05192469E+00
  1.05852900E+00  3.09207700E+00 -1.13401541E+00  3.01620780E+00  1.00011285E+00
  3.03357793E+00  9.00615838E-01 -1.11547912E+00  1.00475411E+00 -1.12820798E+00
  3.13888237E+00  3.13512643E+00 -1.01660355E+00  9.95418185E-01 -1.01964660E+00
  1.11180872E+00  3.12383046E+00  1.00229636E+00  3.13375168E+00 -1.13741189E+00
 -1.04946305E+00  1.03821282E+00  3.13725127E+00  3.10935072E+00 -1.08615871E+00
  1.01287973E+00  1.08347617E+00 -3.11203327E+00 -1.01299482E+00
ZRed-Constraint2                           R   N=          84
  2.49332717E+00  2.03728201E+00  2.03527803E+00  2.82516331E+00  2.04680814E+00
  2.89516954E+00  2.06797351E+00  2.06315374E+00  2.88460754E+00  2.06466081E+00
  2.06488102E+00  2.87922938E+00  2.06444778E+00  2.06389485E+00  2.05606311E+00
  2.05634638E+00  2.05502258E+00  2.12280534E+00  2.13292865E+00  2.02744259E+00
  2.17737775E+00  2.09766651E+00  2.00812627E+00  1.94998260E+00  1.89810035E+00
  1.91724980E+00  1.89646210E+00  1.91397097E+00  1.88681168E+00  1.95408897E+00
  1.90513249E+00  1.90764543E+00  1.90757009E+00  1.90798274E+00  1.87994349E+00
  1.95093774E+00  1.90578464E+00  1.90511603E+00  1.91006593E+00  1.91315965E+00
  1.87728621E+00  1.92940969E+00  1.92983170E+00  1.93112546E+00  1.88954472E+00
  1.89113745E+00  1.89155896E+00  4.47941423E-03  3.13993186E+00  3.14141081E+00
 -6.32205566E-03  2.12606154E+00 -2.06388406E+00 -2.08750310E-03 -1.00967221E+00
  1.08356750E+00 -3.13782125E+00 -1.12651926E+00  3.04222652E+00  9.90156140E-01
  3.06246404E+00  9.48024516E-01 -1.10404586E+00  1.00351526E+00 -1.11092426E+00
  3.12019067E+00  3.13721455E+00 -1.02999452E+00  1.01780063E+00 -1.03294000E+00
  1.08303624E+00  3.13083138E+00  1.02073375E+00  3.13670999E+00 -1.09868017E+00
 -1.04751153E+00  1.04472836E+00  3.14060249E+00  3.12217876E+00 -1.06876666E+00
  1.02710748E+00  1.06724733E+00 -3.12369809E+00 -1.02782396E+00
SymInf integers                            I   N=          26
           1           1           1           1           1           0
           0           0           0           0           0           0
           0           0           0           0           0           0
           0           0           0           0           0           0
           0           0
RotTr to input orientation                 R   N=          12
 -5.32380202E-01  7.15108211E-01  4.52980758E-01 -8.46432382E-01 -4.42677423E-01
 -2.95954255E-01 -1.11149634E-02 -5.40977768E-01  8.40963443E-01 -2.52172946E-01
  1.39351189E-03  4.04760627E-02
Number of contracted shells                I               60
Number of primitive shells                 I              126
Pure/Cartesian d shells                    I                1
Pure/Cartesian f shells                    I                0
Highest angular momentum                   I                2
Largest degree of contraction              I                6
Shell types                                I   N=          60
           0          -1          -1           2           0          -1
          -1           2           0          -1          -1           2
           0          -1          -1           2           0          -1
          -1           2           0          -1          -1           2
           0           0           1           0           0           1
           0           0           1           0           0           1
           0           0           1           0           0           1
           0           0           1           0           0           1
           0           0           1           0           0           1
           0           0           1           0           0           1
Number of primitives per shell             I   N=          60
           6           3           1           1           6           3
           1           1           6           3           1           1
           6           3           1           1           6           3
           1           1           6           3           1           1
           3           1           1           3           1           1
           3           1           1           3           1           1
           3           1           1           3           1           1
           3           1           1           3           1           1
           3           1           1           3           1           1
           3           1           1           3           1           1
Shell to atom map                          I   N=          60
           1           1           1           1           2           2
           2           2           3           3           3           3
           4           4           4           4           5           5
           5           5           6           6           6           6
           7           7           7           8           8           8
           9           9           9          10          10          10
          11          11          11          12          12          12
          13          13          13          14          14          14
          15          15          15          16          16          16
          17          17          17          18          18          18
Primitive exponents                        R   N=         126
  3.04752488E+03  4.57369518E+02  1.03948685E+02  2.92101553E+01  9.28666296E+00
  3.16392696E+00  7.86827235E+00  1.88128854E+00  5.44249258E-01  1.68714478E-01
  8.00000000E-01  3.04752488E+03  4.57369518E+02  1.03948685E+02  2.92101553E+01
  9.28666296E+00  3.16392696E+00  7.86827235E+00  1.88128854E+00  5.44249258E-01
  1.68714478E-01  8.00000000E-01  3.04752488E+03  4.57369518E+02  1.03948685E+02
  2.92101553E+01  9.28666296E+00  3.16392696E+00  7.86827235E+00  1.88128854E+00
  5.44249258E-01  1.68714478E-01  8.00000000E-01  3.04752488E+03  4.57369518E+02
  1.03948685E+02  2.92101553E+01  9.28666296E+00  3.16392696E+00  7.86827235E+00
  1.88128854E+00  5.44249258E-01  1.68714478E-01  8.00000000E-01  3.04752488E+03
  4.57369518E+02  1.03948685E+02  2.92101553E+01  9.28666296E+00  3.16392696E+00
  7.86827235E+00  1.88128854E+00  5.44249258E-01  1.68714478E-01  8.00000000E-01
  3.04752488E+03  4.57369518E+02  1.03948685E+02  2.92101553E+01  9.28666296E+00
  3.16392696E+00  7.86827235E+00  1.88128854E+00  5.44249258E-01  1.68714478E-01
  8.00000000E-01  1.87311370E+01  2.82539436E+00  6.40121692E-01  1.61277759E-01
  1.10000000E+00  1.87311370E+01  2.82539436E+00  6.40121692E-01  1.61277759E-01
  1.10000000E+00  1.87311370E+01  2.82539436E+00  6.40121692E-01  1.61277759E-01
  1.10000000E+00  1.87311370E+01  2.82539436E+00  6.40121692E-01  1.61277759E-01
  1.10000000E+00  1.87311370E+01  2.82539436E+00  6.40121692E-01  1.61277759E-01
  1.10000000E+00  1.87311370E+01  2.82539436E+00  6.40121692E-01  1.61277759E-01
  1.10000000E+00  1.87311370E+01  2.82539436E+00  6.40121692E-01  1.61277759E-01
  1.10000000E+00  1.87311370E+01  2.82539436E+00  6.40121692E-01  1.61277759E-01
  1.10000000E+00  1.87311370E+01  2.82539436E+00  6.40121692E-01  1.61277759E-01
  1.10000000E+00  1.87311370E+01  2.82539436E+00  6.40121692E-01  1.61277759E-01
  1.10000000E+00  1.87311370E+01  2.82539436E+00  6.40121692E-01  1.61277759E-01
  1.10000000E+00  1.87311370E+01  2.82539436E+00  6.40121692E-01  1.61277759E-01
  1.10000000E+00
Contraction coefficients                   R   N=         126
  1.83473713E-03  1.40373228E-02  6.88426223E-02  2.32184443E-01  4.67941348E-01
  3.62311985E-01 -1.19332420E-01 -1.60854152E-01  1.14345644E+00  1.00000000E+00
  1.00000000E+00  1.83473713E-03  1.40373228E-02  6.88426223E-02  2.32184443E-01
  4.67941348E-01  3.62311985E-01 -1.19332420E-01 -1.60854152E-01  1.14345644E+00
  1.00000000E+00  1.00000000E+00  1.83473713E-03  1.40373228E-02  6.88426223E-02
  2.32184443E-01  4.67941348E-01  3.62311985E-01 -1.19332420E-01 -1.60854152E-01
  1.14345644E+00  1.00000000E+00  1.00000000E+00  1.83473713E-03  1.40373228E-02
  6.88426223E-02  2.32184443E-01  4.67941348E-01  3.62311985E-01 -1.19332420E-01
 -1.60854152E-01  1.14345644E+00  1.00000000E+00  1.00000000E+00  1.83473713E-03
  1.40373228E-02  6.88426223E-02  2.32184443E-01  4.67941348E-01  3.62311985E-01
 -1.19332420E-01 -1.60854152E-01  1.14345644E+00  1.00000000E+00  1.00000000E+00
  1.83473713E-03  1.40373228E-02  6.88426223E-02  2.32184443E-01  4.67941348E-01
  3.62311985E-01 -1.19332420E-01 -1.60854152E-01  1.14345644E+00  1.00000000E+00
  1.00000000E+00  3.34946043E-02  2.34726953E-01  8.13757326E-01  1.00000000E+00
  1.00000000E+00  3.34946043E-02  2.34726953E-01  8.13757326E-01  1.00000000E+00
  1.00000000E+00  3.34946043E-02  2.34726953E-01  8.13757326E-01  1.00000000E+00
  1.00000000E+00  3.34946043E-02  2.34726953E-01  8.13757326E-01  1.00000000E+00
  1.00000000E+00  3.34946043E-02  2.34726953E-01  8.13757326E-01  1.00000000E+00
  1.00000000E+00  3.34946043E-02  2.34726953E-01  8.13757326E-01  1.00000000E+00
  1.00000000E+00  3.34946043E-02  2.34726953E-01  8.13757326E-01  1.00000000E+00
  1.00000000E+00  3.34946043E-02  2.34726953E-01  8.13757326E-01  1.00000000E+00
  1.00000000E+00  3.34946043E-02  2.34726953E-01  8.13757326E-01  1.00000000E+00
  1.00000000E+00  3.34946043E-02  2.34726953E-01  8.13757326E-01  1.00000000E+00
  1.00000000E+00  3.34946043E-02  2.34726953E-01  8.13757326E-01  1.00000000E+00
  1.00000000E+00  3.34946043E-02  2.34726953E-01  8.13757326E-01  1.00000000E+00
  1.00000000E+00
P(S=P) Contraction coefficients            R   N=         126
  0.00000000E+00  0.00000000E+00  0.00000000E+00  0.00000000E+00  0.00000000E+00
  0.00000000E+00  6.89990666E-02  3.16423961E-01  7.44308291E-01  1.00000000E+00
  0.00000000E+00  0.00000000E+00  0.00000000E+00  0.00000000E+00  0.00000000E+00
  0.00000000E+00  0.00000000E+00  6.89990666E-02  3.16423961E-01  7.44308291E-01
  1.00000000E+00  0.00000000E+00  0.00000000E+00  0.00000000E+00  0.00000000E+00
  0.00000000E+00  0.00000000E+00  0.00000000E+00  6.89990666E-02  3.16423961E-01
  7.44308291E-01  1.00000000E+00  0.00000000E+00  0.00000000E+00  0.00000000E+00
  0.00000000E+00  0.00000000E+00  0.00000000E+00  0.00000000E+00  6.89990666E-02
  3.16423961E-01  7.44308291E-01  1.00000000E+00  0.00000000E+00  0.00000000E+00
  0.00000000E+00  0.00000000E+00  0.00000000E+00  0.00000000E+00  0.00000000E+00
  6.89990666E-02  3.16423961E-01  7.44308291E-01  1.00000000E+00  0.00000000E+00
  0.00000000E+00  0.00000000E+00  0.00000000E+00  0.00000000E+00  0.00000000E+00
  0.00000000E+00  6.89990666E-02  3.16423961E-01  7.44308291E-01  1.00000000E+00
  0.00000000E+00  0.00000000E+00  0.00000000E+00  0.00000000E+00  0.00000000E+00
  0.00000000E+00  0.00000000E+00  0.00000000E+00  0.00000000E+00  0.00000000E+00
  0.00000000E+00  0.00000000E+00  0.00000000E+00  0.00000000E+00  0.00000000E+00
  0.00000000E+00  0.00000000E+00  0.00000000E+00  0.00000000E+00  0.00000000E+00
  0.00000000E+00  0.00000000E+00  0.00000000E+00  0.00000000E+00  0.00000000E+00
  0.00000000E+00  0.00000000E+00  0.00000000E+00  0.00000000E+00  0.00000000E+00
  0.00000000E+00  0.00000000E+00  0.00000000E+00  0.00000000E+00  0.00000000E+00
  0.00000000E+00  0.00000000E+00  0.00000000E+00  0.00000000E+00  0.00000000E+00
  0.00000000E+00  0.00000000E+00  0.00000000E+00  0.00000000E+00  0.00000000E+00
  0.00000000E+00  0.00000000E+00  0.00000000E+00  0.00000000E+00  0.00000000E+00
  0.00000000E+00  0.00000000E+00  0.00000000E+00  0.00000000E+00  0.00000000E+00
  0.00000000E+00  0.00000000E+00  0.00000000E+00  0.00000000E+00  0.00000000E+00
  0.00000000E+00
Coordinates of each shell                  R   N=         180
  4.69776564E+00 -1.75727959E+00 -2.03112255E-01  4.69776564E+00 -1.75727959E+00
 -2.03112255E-01  4.69776564E+00 -1.75727959E+00 -2.03112255E-01  4.69776564E+00
 -1.75727959E+00 -2.03112255E-01  3.31815403E+00  6.27865397E-02  8.57578713E-01
  3.31815403E+00  6.27865397E-02  8.57578713E-01  3.31815403E+00  6.27865397E-02
  8.57578713E-01  3.31815403E+00  6.27865397E-02  8.57578713E-01  1.66904637E+00
  1.90372237E+00 -5.40843162E-01  1.66904637E+00  1.90372237E+00 -5.40843162E-01
  1.66904637E+00  1.90372237E+00 -5.40843162E-01  1.66904637E+00  1.90372237E+00
 -5.40843162E-01 -1.13773417E+00  1.70874675E+00  2.05531211E-01 -1.13773417E+00
  1.70874675E+00  2.05531211E-01 -1.13773417E+00  1.70874675E+00  2.05531211E-01
 -1.13773417E+00  1.70874675E+00  2.05531211E-01 -2.34888507E+00 -8.19262252E-01
 -5.10116415E-01 -2.34888507E+00 -8.19262252E-01 -5.10116415E-01 -2.34888507E+00
 -8.19262252E-01 -5.10116415E-01 -2.34888507E+00 -8.19262252E-01 -5.10116415E-01
 -5.13010827E+00 -9.90418941E-01  2.58208993E-01 -5.13010827E+00 -9.90418941E-01
  2.58208993E-01 -5.13010827E+00 -9.90418941E-01  2.58208993E-01 -5.13010827E+00
 -9.90418941E-01  2.58208993E-01  4.73133098E+00 -2.02599935E+00 -2.24005307E+00
  4.73133098E+00 -2.02599935E+00 -2.24005307E+00  4.73133098E+00 -2.02599935E+00
 -2.24005307E+00  5.84773455E+00 -3.03700465E+00  9.14865333E-01  5.84773455E+00
 -3.03700465E+00  9.14865333E-01  5.84773455E+00 -3.03700465E+00  9.14865333E-01
  3.33000351E+00  2.59274344E-01  2.91053860E+00  3.33000351E+00  2.59274344E-01
  2.91053860E+00  3.33000351E+00  2.59274344E-01  2.91053860E+00  2.32512843E+00
  3.83546193E+00 -1.53275103E-01  2.32512843E+00  3.83546193E+00 -1.53275103E-01
  2.32512843E+00  3.83546193E+00 -1.53275103E-01  1.86940457E+00  1.60460081E+00
 -2.58280575E+00  1.86940457E+00  1.60460081E+00 -2.58280575E+00  1.86940457E+00
  1.60460081E+00 -2.58280575E+00 -2.18432787E+00  3.25551626E+00 -6.97278209E-01
 -2.18432787E+00  3.25551626E+00 -6.97278209E-01 -2.18432787E+00  3.25551626E+00
 -6.97278209E-01 -1.32259705E+00  2.00503903E+00  2.25295361E+00 -1.32259705E+00