 Entering Gaussian System, Link 0=g16
 Input=0-0-olefin.com
 Output=0-0-olefin.log
 Initial command:
 /public/home/client10/Gaussian/g16/l1.exe "/tmp/Gau-4756.inp" -scrdir="/tmp/"
 Entering Link 1 = /public/home/client10/Gaussian/g16/l1.exe PID=      4757.
  
 Copyright (c) 1988-2019, Gaussian, Inc.  All Rights Reserved.
  
 This is part of the Gaussian(R) 16 program.  It is based on
 the Gaussian(R) 09 system (copyright 2009, Gaussian, Inc.),
 the Gaussian(R) 03 system (copyright 2003, Gaussian, Inc.),
 the Gaussian(R) 98 system (copyright 1998, Gaussian, Inc.),
 the Gaussian(R) 94 system (copyright 1995, Gaussian, Inc.),
 the Gaussian 92(TM) system (copyright 1992, Gaussian, Inc.),
 the Gaussian 90(TM) system (copyright 1990, Gaussian, Inc.),
 the Gaussian 88(TM) system (copyright 1988, Gaussian, Inc.),
 the Gaussian 86(TM) system (copyright 1986, Carnegie Mellon
 University), and the Gaussian 82(TM) system (copyright 1983,
 Carnegie Mellon University). Gaussian is a federally registered
 trademark of Gaussian, Inc.
  
 This software contains proprietary and confidential information,
 including trade secrets, belonging to Gaussian, Inc.
  
 This software is provided under written license and may be
 used, copied, transmitted, or stored only in accord with that
 written license.
  
 The following legend is applicable only to US Government
 contracts under FAR:
  
                    RESTRICTED RIGHTS LEGEND
  
 Use, reproduction and disclosure by the US Government is
 subject to restrictions as set forth in subparagraphs (a)
 and (c) of the Commercial Computer Software - Restricted
 Rights clause in FAR 52.227-19.
  
 Gaussian, Inc.
 340 Quinnipiac St., Bldg. 40, Wallingford CT 06492
  
  
 ---------------------------------------------------------------
 Warning -- This program may not be used in any manner that
 competes with the business of Gaussian, Inc. or will provide
 assistance to any competitor of Gaussian, Inc.  The licensee
 of this program is prohibited from giving any competitor of
 Gaussian, Inc. access to this program.  By using this program,
 the user acknowledges that Gaussian, Inc. is engaged in the
 business of creating and licensing software in the field of
 computational chemistry and represents and warrants to the
 licensee that it is not a competitor of Gaussian, Inc. and that
 it will not use this program in any manner prohibited above.
 ---------------------------------------------------------------
  

 Cite this work as:
 Gaussian 16, Revision C.01,
 M. J. Frisch, G. W. Trucks, H. B. Schlegel, G. E. Scuseria, 
 M. A. Robb, J. R. Cheeseman, G. Scalmani, V. Barone, 
 G. A. Petersson, H. Nakatsuji, X. Li, M. Caricato, A. V. Marenich, 
 J. Bloino, B. G. Janesko, R. Gomperts, B. Mennucci, H. P. Hratchian, 
 J. V. Ortiz, A. F. Izmaylov, J. L. Sonnenberg, D. Williams-Young, 
 F. Ding, F. Lipparini, F. Egidi, J. Goings, B. Peng, A. Petrone, 
 T. Henderson, D. Ranasinghe, V. G. Zakrzewski, J. Gao, N. Rega, 
 G. Zheng, W. Liang, M. Hada, M. Ehara, K. Toyota, R. Fukuda, 
 J. Hasegawa, M. Ishida, T. Nakajima, Y. Honda, O. Kitao, H. Nakai, 
 T. Vreven, K. Throssell, J. A. Montgomery, Jr., J. E. Peralta, 
 F. Ogliaro, M. J. Bearpark, J. J. Heyd, E. N. Brothers, K. N. Kudin, 
 V. N. Staroverov, T. A. Keith, R. Kobayashi, J. Normand, 
 K. Raghavachari, A. P. Rendell, J. C. Burant, S. S. Iyengar, 
 J. Tomasi, M. Cossi, J. M. Millam, M. Klene, C. Adamo, R. Cammi, 
 J. W. Ochterski, R. L. Martin, K. Morokuma, O. Farkas, 
 J. B. Foresman, and D. J. Fox, Gaussian, Inc., Wallingford CT, 2019.
 
 ******************************************
 Gaussian 16:  ES64L-G16RevC.01  3-Jul-2019
                26-Mar-2024 
 ******************************************
 %chk=0-0-olefin.chk
 %mem=16GB
 %nprocshared=16
 Will use up to   16 processors via shared memory.
 ---------------------------------
 # opt freq b3lyp/6-31g** em=gd3bj
 ---------------------------------
 1/18=20,19=15,26=3,38=1/1,3;
 2/9=110,12=2,17=6,18=5,40=1/2;
 3/5=1,6=6,7=101,11=2,25=1,30=1,71=1,74=-5,124=41/1,2,3;
 4//1;
 5/5=2,38=5/2;
 6/7=2,8=2,9=2,10=2,28=1/1;
 7//1,2,3,16;
 1/18=20,19=15,26=3/3(2);
 2/9=110/2;
 99//99;
 2/9=110/2;
 3/5=1,6=6,7=101,11=2,25=1,30=1,71=1,74=-5,124=41/1,2,3;
 4/5=5,16=3,69=1/1;
 5/5=2,38=5/2;
 7//1,2,3,16;
 1/18=20,19=15,26=3/3(-5);
 2/9=110/2;
 6/7=2,8=2,9=2,10=2,19=2,28=1/1;
 99/9=1/99;
 ----------
 0-0-olefin
 ----------
 Symbolic Z-matrix:
 Charge =  0 Multiplicity = 1
 C                    -0.66118   2.22224   1.31179 
 C                    -1.06272   0.9732    1.1721 
 C                    -1.44225   0.34036  -0.1281 
 C                    -0.58604  -0.89387  -0.42939 
 C                     0.88431  -0.53433  -0.62661 
 C                     1.73291  -1.7653   -0.91988 
 H                    -0.58282   2.88862   0.46795 
 H                    -0.39748   2.63666   2.27028 
 H                    -1.13143   0.32337   2.0359 
 H                    -2.49175   0.03453  -0.07742 
 H                    -1.3389    1.06565  -0.93757 
 H                    -0.96307  -1.38007  -1.33226 
 H                    -0.67668  -1.60612   0.3943 
 H                     0.97306   0.17389  -1.45367 
 H                     1.25582  -0.0387    0.27292 
 H                     1.67307  -2.47514  -0.09748 
 H                     1.38701  -2.2615   -1.82447 
 H                     2.7754   -1.48832  -1.058 
 

 GradGradGradGradGradGradGradGradGradGradGradGradGradGradGradGradGradGrad
 Berny optimization.
 Initialization pass.
                           ----------------------------
                           !    Initial Parameters    !
                           ! (Angstroms and Degrees)  !
 --------------------------                            --------------------------
 ! Name  Definition              Value          Derivative Info.                !
 --------------------------------------------------------------------------------
 ! R1    R(1,2)                  1.3194         estimate D2E/DX2                !
 ! R2    R(1,7)                  1.0781         estimate D2E/DX2                !
 ! R3    R(1,8)                  1.077          estimate D2E/DX2                !
 ! R4    R(2,3)                  1.495          estimate D2E/DX2                !
 ! R5    R(2,9)                  1.0831         estimate D2E/DX2                !
 ! R6    R(3,4)                  1.5321         estimate D2E/DX2                !
 ! R7    R(3,10)                 1.0943         estimate D2E/DX2                !
 ! R8    R(3,11)                 1.0918         estimate D2E/DX2                !
 ! R9    R(4,5)                  1.5265         estimate D2E/DX2                !
 ! R10   R(4,12)                 1.0926         estimate D2E/DX2                !
 ! R11   R(4,13)                 1.0927         estimate D2E/DX2                !
 ! R12   R(5,6)                  1.5236         estimate D2E/DX2                !
 ! R13   R(5,14)                 1.0925         estimate D2E/DX2                !
 ! R14   R(5,15)                 1.0922         estimate D2E/DX2                !
 ! R15   R(6,16)                 1.088          estimate D2E/DX2                !
 ! R16   R(6,17)                 1.0882         estimate D2E/DX2                !
 ! R17   R(6,18)                 1.0875         estimate D2E/DX2                !
 ! A1    A(2,1,7)              121.6278         estimate D2E/DX2                !
 ! A2    A(2,1,8)              122.2078         estimate D2E/DX2                !
 ! A3    A(7,1,8)              116.1639         estimate D2E/DX2                !
 ! A4    A(1,2,3)              124.7546         estimate D2E/DX2                !
 ! A5    A(1,2,9)              120.1874         estimate D2E/DX2                !
 ! A6    A(3,2,9)              115.0572         estimate D2E/DX2                !
 ! A7    A(2,3,4)              111.7258         estimate D2E/DX2                !
 ! A8    A(2,3,10)             108.7531         estimate D2E/DX2                !
 ! A9    A(2,3,11)             109.8503         estimate D2E/DX2                !
 ! A10   A(4,3,10)             108.6593         estimate D2E/DX2                !
 ! A11   A(4,3,11)             109.6625         estimate D2E/DX2                !
 ! A12   A(10,3,11)            108.1063         estimate D2E/DX2                !
 ! A13   A(3,4,5)              111.9611         estimate D2E/DX2                !
 ! A14   A(3,4,12)             109.1561         estimate D2E/DX2                !
 ! A15   A(3,4,13)             109.3            estimate D2E/DX2                !
 ! A16   A(5,4,12)             109.2957         estimate D2E/DX2                !
 ! A17   A(5,4,13)             109.3194         estimate D2E/DX2                !
 ! A18   A(12,4,13)            107.7128         estimate D2E/DX2                !
 ! A19   A(4,5,6)              111.7805         estimate D2E/DX2                !
 ! A20   A(4,5,14)             109.1934         estimate D2E/DX2                !
 ! A21   A(4,5,15)             109.1551         estimate D2E/DX2                !
 ! A22   A(6,5,14)             109.4387         estimate D2E/DX2                !
 ! A23   A(6,5,15)             109.616          estimate D2E/DX2                !
 ! A24   A(14,5,15)            107.5606         estimate D2E/DX2                !
 ! A25   A(5,6,16)             110.547          estimate D2E/DX2                !
 ! A26   A(5,6,17)             110.5712         estimate D2E/DX2                !
 ! A27   A(5,6,18)             110.6453         estimate D2E/DX2                !
 ! A28   A(16,6,17)            108.2629         estimate D2E/DX2                !
 ! A29   A(16,6,18)            108.3542         estimate D2E/DX2                !
 ! A30   A(17,6,18)            108.3783         estimate D2E/DX2                !
 ! D1    D(7,1,2,3)              0.2567         estimate D2E/DX2                !
 ! D2    D(7,1,2,9)            179.9048         estimate D2E/DX2                !
 ! D3    D(8,1,2,3)            179.9896         estimate D2E/DX2                !
 ! D4    D(8,1,2,9)             -0.3622         estimate D2E/DX2                !
 ! D5    D(1,2,3,4)            121.8144         estimate D2E/DX2                !
 ! D6    D(1,2,3,10)          -118.2518         estimate D2E/DX2                !
 ! D7    D(1,2,3,11)            -0.1196         estimate D2E/DX2                !
 ! D8    D(9,2,3,4)            -57.85           estimate D2E/DX2                !
 ! D9    D(9,2,3,10)            62.0838         estimate D2E/DX2                !
 ! D10   D(9,2,3,11)          -179.7839         estimate D2E/DX2                !
 ! D11   D(2,3,4,5)            -64.5448         estimate D2E/DX2                !
 ! D12   D(2,3,4,12)           174.3067         estimate D2E/DX2                !
 ! D13   D(2,3,4,13)            56.7318         estimate D2E/DX2                !
 ! D14   D(10,3,4,5)           175.4663         estimate D2E/DX2                !
 ! D15   D(10,3,4,12)           54.3178         estimate D2E/DX2                !
 ! D16   D(10,3,4,13)          -63.2572         estimate D2E/DX2                !
 ! D17   D(11,3,4,5)            57.4972         estimate D2E/DX2                !
 ! D18   D(11,3,4,12)          -63.6513         estimate D2E/DX2                !
 ! D19   D(11,3,4,13)          178.7738         estimate D2E/DX2                !
 ! D20   D(3,4,5,6)            179.7492         estimate D2E/DX2                !
 ! D21   D(3,4,5,14)           -59.0143         estimate D2E/DX2                !
 ! D22   D(3,4,5,15)            58.3157         estimate D2E/DX2                !
 ! D23   D(12,4,5,6)           -59.1831         estimate D2E/DX2                !
 ! D24   D(12,4,5,14)           62.0534         estimate D2E/DX2                !
 ! D25   D(12,4,5,15)          179.3834         estimate D2E/DX2                !
 ! D26   D(13,4,5,6)            58.4837         estimate D2E/DX2                !
 ! D27   D(13,4,5,14)          179.7202         estimate D2E/DX2                !
 ! D28   D(13,4,5,15)          -62.9497         estimate D2E/DX2                !
 ! D29   D(4,5,6,16)           -60.018          estimate D2E/DX2                !
 ! D30   D(4,5,6,17)            59.8585         estimate D2E/DX2                !
 ! D31   D(4,5,6,18)           179.9433         estimate D2E/DX2                !
 ! D32   D(14,5,6,16)          178.8877         estimate D2E/DX2                !
 ! D33   D(14,5,6,17)          -61.2358         estimate D2E/DX2                !
 ! D34   D(14,5,6,18)           58.8489         estimate D2E/DX2                !
 ! D35   D(15,5,6,16)           61.1488         estimate D2E/DX2                !
 ! D36   D(15,5,6,17)         -178.9747         estimate D2E/DX2                !
 ! D37   D(15,5,6,18)          -58.89           estimate D2E/DX2                !
 --------------------------------------------------------------------------------
 Trust Radius=3.00D-01 FncErr=1.00D-07 GrdErr=1.00D-06 EigMax=2.50D+02 EigMin=1.00D-04
 Number of steps in this run=     94 maximum allowed number of steps=    108.
 GradGradGradGradGradGradGradGradGradGradGradGradGradGradGradGradGradGrad

                          Input orientation:                          
 ---------------------------------------------------------------------
 Center     Atomic      Atomic             Coordinates (Angstroms)
 Number     Number       Type             X           Y           Z
 ---------------------------------------------------------------------
      1          6           0       -0.661179    2.222238    1.311788
      2          6           0       -1.062721    0.973199    1.172099
      3          6           0       -1.442254    0.340356   -0.128103
      4          6           0       -0.586038   -0.893875   -0.429386
      5          6           0        0.884313   -0.534327   -0.626614
      6          6           0        1.732908   -1.765305   -0.919885
      7          1           0       -0.582824    2.888619    0.467951
      8          1           0       -0.397484    2.636657    2.270276
      9          1           0       -1.131433    0.323370    2.035904
     10          1           0       -2.491751    0.034526   -0.077425
     11          1           0       -1.338901    1.065653   -0.937567
     12          1           0       -0.963070   -1.380066   -1.332258
     13          1           0       -0.676680   -1.606119    0.394300
     14          1           0        0.973056    0.173889   -1.453669
     15          1           0        1.255825   -0.038705    0.272922
     16          1           0        1.673075   -2.475136   -0.097479
     17          1           0        1.387011   -2.261495   -1.824466
     18          1           0        2.775402   -1.488316   -1.057998
 ---------------------------------------------------------------------
                    Distance matrix (angstroms):
                    1          2          3          4          5
     1  C    0.000000
     2  C    1.319412   0.000000
     3  C    2.494964   1.495012   0.000000
     4  C    3.570363   2.505583   1.532058   0.000000
     5  C    3.707372   3.049418   2.535054   1.526469   0.000000
     6  C    5.158732   4.437492   3.891320   2.525369   1.523623
     7  H    1.078083   2.096416   2.754550   3.887478   3.881640
     8  H    1.077023   2.101339   3.480915   4.448414   4.482201
     9  H    2.085949   1.083124   2.186281   2.802998   3.447881
    10  H    3.172852   2.117674   1.094324   2.148848   3.467422
    11  H    2.618510   2.129675   1.091774   2.159815   2.756685
    12  H    4.478695   3.437963   2.153940   1.092571   2.150821
    13  H    3.936794   2.721559   2.155869   1.092688   2.151210
    14  H    3.809752   3.417301   2.760173   2.149430   1.092459
    15  H    3.141021   2.684795   2.753931   2.148723   1.092166
    16  H    5.431400   4.581203   4.199191   2.777434   2.160756
    17  H    5.842520   5.044188   4.201430   2.776609   2.161172
    18  H    5.585176   5.075783   4.690135   3.470993   2.161574
                    6          7          8          9         10
     6  C    0.000000
     7  H    5.380308   0.000000
     8  H    5.838918   1.829265   0.000000
     9  H    4.615593   3.056133   2.438218   0.000000
    10  H    4.668712   3.476678   4.082737   2.529833   0.000000
    11  H    4.177397   2.422878   3.693857   3.071735   1.769783
    12  H    2.754406   4.648334   5.425146   3.778168   2.431572
    13  H    2.749278   4.496321   4.647407   2.573829   2.491731
    14  H    2.150064   3.671940   4.670265   4.077786   3.730732
    15  H    2.152102   3.462353   3.725644   2.989683   3.764629
    16  H    1.088022   5.846252   6.001992   4.499803   4.862570
    17  H    1.088172   5.971525   6.628970   5.284557   4.834115
    18  H    1.087471   5.723964   6.177380   5.302621   5.569872
                   11         12         13         14         15
    11  H    0.000000
    12  H    2.505708   0.000000
    13  H    3.057904   1.764688   0.000000
    14  H    2.531156   2.485578   3.050418   0.000000
    15  H    3.068793   3.049483   2.491203   1.762462   0.000000
    16  H    4.723869   3.110163   2.553112   3.057223   2.499498
    17  H    4.391708   2.557746   3.100203   2.497989   3.058928
    18  H    4.844043   3.750081   3.746988   2.483533   2.486329
                   16         17         18
    16  H    0.000000
    17  H    1.763508   0.000000
    18  H    1.763955   1.764345   0.000000
 Stoichiometry    C6H12
 Framework group  C1[X(C6H12)]
 Deg. of freedom    48
 Full point group                 C1      NOp   1
 Largest Abelian subgroup         C1      NOp   1
 Largest concise Abelian subgroup C1      NOp   1
                         Standard orientation:                         
 ---------------------------------------------------------------------
 Center     Atomic      Atomic             Coordinates (Angstroms)
 Number     Number       Type             X           Y           Z
 ---------------------------------------------------------------------
      1          6           0        2.460005   -0.911820   -0.110092
      2          6           0        1.713080    0.015454    0.458342
      3          6           0        0.873792    1.006259   -0.282577
      4          6           0       -0.602290    0.909882    0.116287
      5          6           0       -1.212703   -0.433523   -0.274568
      6          6           0       -2.678797   -0.527281    0.129418
      7          1           0        2.516554   -1.013684   -1.181861
      8          1           0        3.049834   -1.605866    0.464695
      9          1           0        1.672304    0.095889    1.537705
     10          1           0        1.233549    2.013841   -0.052580
     11          1           0        0.974886    0.847120   -1.357950
     12          1           0       -1.158486    1.714472   -0.370532
     13          1           0       -0.694341    1.048254    1.196262
     14          1           0       -1.124057   -0.567510   -1.355149
     15          1           0       -0.648313   -1.236539    0.204447
     16          1           0       -2.786029   -0.415687    1.206377
     17          1           0       -3.259453    0.255798   -0.354052
     18          1           0       -3.094964   -1.489913   -0.158224
 ---------------------------------------------------------------------
 Rotational constants (GHZ):           7.1816517           1.7212013           1.5208800
 Standard basis: 6-31G(d,p) (6D, 7F)
 There are   150 symmetry adapted cartesian basis functions of A   symmetry.
 There are   150 symmetry adapted basis functions of A   symmetry.
   150 basis functions,   252 primitive gaussians,   150 cartesian basis functions
    24 alpha electrons       24 beta electrons
       nuclear repulsion energy       234.7224167577 Hartrees.
 NAtoms=   18 NActive=   18 NUniq=   18 SFac= 1.00D+00 NAtFMM=   60 NAOKFM=F Big=F
 Integral buffers will be    131072 words long.
 Raffenetti 2 integral format.
 Two-electron integral symmetry is turned on.
 Nuclear repulsion after empirical dispersion term =      234.6990942826 Hartrees.
 One-electron integrals computed using PRISM.
 NBasis=   150 RedAO= T EigKep=  3.66D-03  NBF=   150
 NBsUse=   150 1.00D-06 EigRej= -1.00D+00 NBFU=   150
 ExpMin= 1.61D-01 ExpMax= 3.05D+03 ExpMxC= 4.57D+02 IAcc=3 IRadAn=         5 AccDes= 0.00D+00
 Harris functional with IExCor=  402 and IRadAn=       5 diagonalized for initial guess.
 HarFok:  IExCor=  402 AccDes= 0.00D+00 IRadAn=         5 IDoV= 1 UseB2=F ITyADJ=14
 ICtDFT=  3500011 ScaDFX=  1.000000  1.000000  1.000000  1.000000
 FoFCou: FMM=F IPFlag=           0 FMFlag=      100000 FMFlg1=           0
         NFxFlg=           0 DoJE=T BraDBF=F KetDBF=T FulRan=T
         wScrn=  0.000000 ICntrl=       500 IOpCl=  0 I1Cent=   200000004 NGrid=           0
         NMat0=    1 NMatS0=      1 NMatT0=    0 NMatD0=    1 NMtDS0=    0 NMtDT0=    0
 Petite list used in FoFCou.
 Requested convergence on RMS density matrix=1.00D-08 within 128 cycles.
 Requested convergence on MAX density matrix=1.00D-06.
 Requested convergence on             energy=1.00D-06.
 No special actions if energy rises.
 Integral accuracy reduced to 1.0D-05 until final iterations.
 Initial convergence to 1.0D-05 achieved.  Increase integral accuracy.
 SCF Done:  E(RB3LYP) =  -235.887286314     A.U. after   13 cycles
            NFock= 13  Conv=0.23D-08     -V/T= 2.0094

 **********************************************************************

            Population analysis using the SCF Density.

 **********************************************************************

 Orbital symmetries:
       Occupied  (A) (A) (A) (A) (A) (A) (A) (A) (A) (A) (A) (A)
                 (A) (A) (A) (A) (A) (A) (A) (A) (A) (A) (A) (A)
       Virtual   (A) (A) (A) (A) (A) (A) (A) (A) (A) (A) (A) (A)
                 (A) (A) (A) (A) (A) (A) (A) (A) (A) (A) (A) (A)
                 (A) (A) (A) (A) (A) (A) (A) (A) (A) (A) (A) (A)
                 (A) (A) (A) (A) (A) (A) (A) (A) (A) (A) (A) (A)
                 (A) (A) (A) (A) (A) (A) (A) (A) (A) (A) (A) (A)
                 (A) (A) (A) (A) (A) (A) (A) (A) (A) (A) (A) (A)
                 (A) (A) (A) (A) (A) (A) (A) (A) (A) (A) (A) (A)
                 (A) (A) (A) (A) (A) (A) (A) (A) (A) (A) (A) (A)
                 (A) (A) (A) (A) (A) (A) (A) (A) (A) (A) (A) (A)
                 (A) (A) (A) (A) (A) (A) (A) (A) (A) (A) (A) (A)
                 (A) (A) (A) (A) (A) (A)
 The electronic state is 1-A.
 Alpha  occ. eigenvalues --  -10.18077 -10.17870 -10.17544 -10.17093 -10.16929
 Alpha  occ. eigenvalues --  -10.16609  -0.80992  -0.76444  -0.70868  -0.63133
 Alpha  occ. eigenvalues --   -0.57727  -0.54981  -0.46441  -0.46006  -0.42408
 Alpha  occ. eigenvalues --   -0.41953  -0.41167  -0.37328  -0.35759  -0.33739
 Alpha  occ. eigenvalues --   -0.32867  -0.32199  -0.31759  -0.25039
 Alpha virt. eigenvalues --    0.02780   0.10247   0.11856   0.11920   0.14323
 Alpha virt. eigenvalues --    0.15855   0.16419   0.17244   0.18704   0.19341
 Alpha virt. eigenvalues --    0.19683   0.20317   0.20638   0.24738   0.25792
 Alpha virt. eigenvalues --    0.26133   0.31412   0.38045   0.48239   0.50368
 Alpha virt. eigenvalues --    0.51605   0.53207   0.55137   0.57504   0.59149
 Alpha virt. eigenvalues --    0.60017   0.63000   0.66959   0.68321   0.69489
 Alpha virt. eigenvalues --    0.71764   0.73397   0.76724   0.80816   0.83539
 Alpha virt. eigenvalues --    0.84350   0.85330   0.85786   0.88150   0.89824
 Alpha virt. eigenvalues --    0.90801   0.92459   0.93814   0.94805   0.96429
 Alpha virt. eigenvalues --    0.98686   1.01290   1.03281   1.09217   1.17325
 Alpha virt. eigenvalues --    1.25344   1.30971   1.37199   1.37786   1.41365
 Alpha virt. eigenvalues --    1.47211   1.51360   1.54798   1.59480   1.65241
 Alpha virt. eigenvalues --    1.68771   1.72553   1.77553   1.80688   1.85380
 Alpha virt. eigenvalues --    1.88428   1.91041   1.92368   1.94506   2.01630
 Alpha virt. eigenvalues --    2.03702   2.04046   2.05602   2.07945   2.11950
 Alpha virt. eigenvalues --    2.13384   2.13881   2.14702   2.18870   2.21850
 Alpha virt. eigenvalues --    2.24213   2.27306   2.30382   2.30631   2.32255
 Alpha virt. eigenvalues --    2.39983   2.42882   2.44039   2.46359   2.50561
 Alpha virt. eigenvalues --    2.54828   2.55871   2.58739   2.59885   2.63216
 Alpha virt. eigenvalues --    2.68580   2.73043   2.74901   2.78080   2.80297
 Alpha virt. eigenvalues --    2.81248   2.85446   2.86952   2.90010   2.92350
 Alpha virt. eigenvalues --    2.92849   2.96418   3.05857   3.20653   3.25435
 Alpha virt. eigenvalues --    3.29750   3.31015   3.35026   3.37663   3.46360
 Alpha virt. eigenvalues --    3.47480   3.49988   3.55247   3.59341   3.71844
 Alpha virt. eigenvalues --    4.23649   4.29838   4.45834   4.54820   4.62551
 Alpha virt. eigenvalues --    4.71883
          Condensed to atoms (all electrons):
               1          2          3          4          5          6
     1  C    4.896446   0.683276  -0.040275  -0.000916  -0.000570   0.000018
     2  C    0.683276   4.728278   0.403437  -0.048117  -0.007583   0.000343
     3  C   -0.040275   0.403437   4.932838   0.354437  -0.045704   0.004561
     4  C   -0.000916  -0.048117   0.354437   4.931079   0.388416  -0.045469
     5  C   -0.000570  -0.007583  -0.045704   0.388416   4.877490   0.371723
     6  C    0.000018   0.000343   0.004561  -0.045469   0.371723   4.912892
     7  H    0.382762  -0.034653  -0.014711   0.000298  -0.000025  -0.000000
     8  H    0.373682  -0.023426   0.005528  -0.000150  -0.000048   0.000000
     9  H   -0.046029   0.378841  -0.058773  -0.002605  -0.000629  -0.000007
    10  H    0.000749  -0.035676   0.370583  -0.036912   0.005395  -0.000176
    11  H   -0.008418  -0.041181   0.380202  -0.036311  -0.008059   0.000083
    12  H   -0.000137   0.004823  -0.030684   0.376551  -0.041968  -0.003477
    13  H    0.000223  -0.007712  -0.039414   0.382747  -0.042590  -0.003880
    14  H    0.000471  -0.000952  -0.003043  -0.042971   0.386303  -0.039005
    15  H    0.002244   0.011209  -0.006809  -0.041356   0.387621  -0.037596
    16  H    0.000003  -0.000017   0.000116  -0.005759  -0.036331   0.388299
    17  H   -0.000001  -0.000002   0.000003  -0.005405  -0.036111   0.387381
    18  H    0.000003   0.000004  -0.000193   0.004610  -0.029473   0.380674
               7          8          9         10         11         12
     1  C    0.382762   0.373682  -0.046029   0.000749  -0.008418  -0.000137
     2  C   -0.034653  -0.023426   0.378841  -0.035676  -0.041181   0.004823
     3  C   -0.014711   0.005528  -0.058773   0.370583   0.380202  -0.030684
     4  C    0.000298  -0.000150  -0.002605  -0.036912  -0.036311   0.376551
     5  C   -0.000025  -0.000048  -0.000629   0.005395  -0.008059  -0.041968
     6  C   -0.000000   0.000000  -0.000007  -0.000176   0.000083  -0.003477
     7  H    0.609955  -0.047802   0.006632   0.000231   0.007189  -0.000012
     8  H   -0.047802   0.609280  -0.009517  -0.000255   0.000084   0.000004
     9  H    0.006632  -0.009517   0.643798  -0.002208   0.005965  -0.000055
    10  H    0.000231  -0.000255  -0.002208   0.641118  -0.034646  -0.004377
    11  H    0.007189   0.000084   0.005965  -0.034646   0.633759  -0.003113
    12  H   -0.000012   0.000004  -0.000055  -0.004377  -0.003113   0.646587
    13  H    0.000021   0.000006   0.004938  -0.003188   0.006057  -0.037596
    14  H    0.000048   0.000002   0.000073   0.000034   0.005742  -0.006146
    15  H    0.000047   0.000085   0.000309   0.000179  -0.000324   0.006391
    16  H   -0.000000   0.000000  -0.000003   0.000003   0.000009  -0.000498
    17  H   -0.000000   0.000000   0.000000  -0.000004  -0.000001   0.005260
    18  H   -0.000000   0.000000  -0.000000   0.000003  -0.000001  -0.000024
              13         14         15         16         17         18
     1  C    0.000223   0.000471   0.002244   0.000003  -0.000001   0.000003
     2  C   -0.007712  -0.000952   0.011209  -0.000017  -0.000002   0.000004
     3  C   -0.039414  -0.003043  -0.006809   0.000116   0.000003  -0.000193
     4  C    0.382747  -0.042971  -0.041356  -0.005759  -0.005405   0.004610
     5  C   -0.042590   0.386303   0.387621  -0.036331  -0.036111  -0.029473
     6  C   -0.003880  -0.039005  -0.037596   0.388299   0.387381   0.380674
     7  H    0.000021   0.000048   0.000047  -0.000000  -0.000000  -0.000000
     8  H    0.000006   0.000002   0.000085   0.000000   0.000000   0.000000
     9  H    0.004938   0.000073   0.000309  -0.000003   0.000000  -0.000000
    10  H   -0.003188   0.000034   0.000179   0.000003  -0.000004   0.000003
    11  H    0.006057   0.005742  -0.000324   0.000009  -0.000001  -0.000001
    12  H   -0.037596  -0.006146   0.006391  -0.000498   0.005260  -0.000024
    13  H    0.646051   0.006447  -0.005742   0.005374  -0.000517  -0.000008
    14  H    0.006447   0.643697  -0.037117   0.005768  -0.005283  -0.003258
    15  H   -0.005742  -0.037117   0.620385  -0.004989   0.005460  -0.002842
    16  H    0.005374   0.005768  -0.004989   0.612680  -0.033654  -0.031783
    17  H   -0.000517  -0.005283   0.005460  -0.033654   0.614710  -0.032092
    18  H   -0.000008  -0.003258  -0.002842  -0.031783  -0.032092   0.615727
 Mulliken charges:
               1
     1  C   -0.243528
     2  C   -0.010894
     3  C   -0.212097
     4  C   -0.172166
     5  C   -0.167857
     6  C   -0.316365
     7  H    0.090021
     8  H    0.092526
     9  H    0.079272
    10  H    0.099147
    11  H    0.092962
    12  H    0.088471
    13  H    0.088783
    14  H    0.089190
    15  H    0.102846
    16  H    0.100781
    17  H    0.100256
    18  H    0.098653
 Sum of Mulliken charges =  -0.00000
 Mulliken charges with hydrogens summed into heavy atoms:
               1
     1  C   -0.060981
     2  C    0.068378
     3  C   -0.019988
     4  C    0.005087
     5  C    0.024179
     6  C   -0.016676
 Electronic spatial extent (au):  <R**2>=            852.3862
 Charge=             -0.0000 electrons
 Dipole moment (field-independent basis, Debye):
    X=             -0.1494    Y=              0.2136    Z=              0.0477  Tot=              0.2650
 Quadrupole moment (field-independent basis, Debye-Ang):
   XX=            -41.5343   YY=            -39.6097   ZZ=            -38.3336
   XY=             -0.7947   XZ=              0.3191   YZ=              0.0443
 Traceless Quadrupole moment (field-independent basis, Debye-Ang):
   XX=             -1.7085   YY=              0.2162   ZZ=              1.4923
   XY=             -0.7947   XZ=              0.3191   YZ=              0.0443
 Octapole moment (field-independent basis, Debye-Ang**2):
  XXX=             -2.5035  YYY=              0.7830  ZZZ=              0.3830  XYY=              0.8866
  XXY=             -3.4763  XXZ=             -0.4907  XZZ=              1.6564  YZZ=             -0.2294
  YYZ=              0.0272  XYZ=              0.2326
 Hexadecapole moment (field-independent basis, Debye-Ang**3):
 XXXX=           -894.8833 YYYY=           -212.6431 ZZZZ=            -97.5029 XXXY=            -15.8204
 XXXZ=              4.4841 YYYX=              0.9290 YYYZ=             -0.7209 ZZZX=             -1.1274
 ZZZY=              0.9995 XXYY=           -171.5718 XXZZ=           -156.0633 YYZZ=            -53.2434
 XXYZ=             -1.2062 YYXZ=              2.8140 ZZXY=             -1.9064
 N-N= 2.346990942826D+02 E-N=-1.014178060968D+03  KE= 2.336885779766D+02
 Calling FoFJK, ICntrl=      2127 FMM=F ISym2X=0 I1Cent= 0 IOpClX= 0 NMat=1 NMatS=1 NMatT=0.
 ***** Axes restored to original set *****
 -------------------------------------------------------------------
 Center     Atomic                   Forces (Hartrees/Bohr)
 Number     Number              X              Y              Z
 -------------------------------------------------------------------
      1        6           0.003525760    0.009436994    0.003763261
      2        6          -0.005288397   -0.007398345   -0.004388427
      3        6          -0.000927699   -0.003655613    0.002466678
      4        6           0.002055439    0.006270245   -0.002399677
      5        6          -0.000786556   -0.006851559    0.000889928
      6        6          -0.000055796    0.004894195    0.000274872
      7        1           0.000380503    0.003576954   -0.005535966
      8        1           0.001550350    0.002137223    0.005995867
      9        1           0.000170968   -0.002254430    0.005311875
     10        1          -0.003429819    0.000334302   -0.001614083
     11        1          -0.001451464    0.002010279   -0.002456091
     12        1          -0.001406517   -0.003085365   -0.001402849
     13        1          -0.001034806   -0.003627381    0.001547385
     14        1           0.000438206    0.003835612   -0.001206144
     15        1           0.000983138    0.002975182    0.000586606
     16        1           0.000572314   -0.004181372    0.002933639
     17        1          -0.000419661   -0.003478082   -0.003808398
     18        1           0.005124035   -0.000938838   -0.000958477
 -------------------------------------------------------------------
 Cartesian Forces:  Max     0.009436994 RMS     0.003453293

 GradGradGradGradGradGradGradGradGradGradGradGradGradGradGradGradGradGrad
 Berny optimization.
 FormGI is forming the generalized inverse of G from B-inverse, IUseBI=4.
 Internal  Forces:  Max     0.016452195 RMS     0.003118064
 Search for a local minimum.
 Step number   1 out of a maximum of   94
 All quantities printed in internal units (Hartrees-Bohrs-Radians)
 Mixed Optimization -- RFO/linear search
 Second derivative matrix not updated -- first step.
 ITU=  0
     Eigenvalues ---    0.00342   0.00416   0.00453   0.00832   0.01814
     Eigenvalues ---    0.03155   0.03155   0.03649   0.03703   0.04281
     Eigenvalues ---    0.04891   0.04930   0.05510   0.05649   0.05665
     Eigenvalues ---    0.08188   0.08193   0.09250   0.12091   0.12094
     Eigenvalues ---    0.12745   0.16000   0.16000   0.16000   0.16000
     Eigenvalues ---    0.16000   0.16000   0.21927   0.21937   0.21983
     Eigenvalues ---    0.22000   0.29234   0.29752   0.30020   0.32906
     Eigenvalues ---    0.34318   0.34504   0.34517   0.34530   0.34564
     Eigenvalues ---    0.34608   0.35025   0.35042   0.35107   0.35619
     Eigenvalues ---    0.36227   0.36356   0.62078
 RFO step:  Lambda=-2.74128902D-03 EMin= 3.41885035D-03
 Linear search not attempted -- first point.
 Iteration  1 RMS(Cart)=  0.04572352 RMS(Int)=  0.00024374
 Iteration  2 RMS(Cart)=  0.00033550 RMS(Int)=  0.00006128
 Iteration  3 RMS(Cart)=  0.00000008 RMS(Int)=  0.00006128
 Variable       Old X    -DE/DX   Delta X   Delta X   Delta X     New X
                                 (Linear)    (Quad)   (Total)
    R1        2.49333   0.01645   0.00000   0.02639   0.02639   2.51971
    R2        2.03728   0.00657   0.00000   0.01801   0.01801   2.05529
    R3        2.03528   0.00654   0.00000   0.01785   0.01785   2.05313
    R4        2.82516   0.00689   0.00000   0.02077   0.02077   2.84593
    R5        2.04681   0.00558   0.00000   0.01554   0.01554   2.06235
    R6        2.89517   0.00713   0.00000   0.02415   0.02415   2.91932
    R7        2.06797   0.00312   0.00000   0.00902   0.00902   2.07700
    R8        2.06315   0.00302   0.00000   0.00866   0.00866   2.07181
    R9        2.88461   0.00492   0.00000   0.01639   0.01639   2.90100
   R10        2.06466   0.00302   0.00000   0.00867   0.00867   2.07333
   R11        2.06488   0.00362   0.00000   0.01040   0.01040   2.07528
   R12        2.87923   0.00620   0.00000   0.02047   0.02047   2.89970
   R13        2.06445   0.00343   0.00000   0.00987   0.00987   2.07432
   R14        2.06389   0.00217   0.00000   0.00622   0.00622   2.07012
   R15        2.05606   0.00491   0.00000   0.01392   0.01392   2.06998
   R16        2.05635   0.00489   0.00000   0.01384   0.01384   2.07019
   R17        2.05502   0.00479   0.00000   0.01355   0.01355   2.06857
    A1        2.12281  -0.00056   0.00000  -0.00345  -0.00345   2.11936
    A2        2.13293  -0.00015   0.00000  -0.00089  -0.00089   2.13204
    A3        2.02744   0.00071   0.00000   0.00435   0.00435   2.03179
    A4        2.17738   0.00294   0.00000   0.01321   0.01320   2.19058
    A5        2.09767  -0.00299   0.00000  -0.01597  -0.01597   2.08169
    A6        2.00813   0.00005   0.00000   0.00274   0.00273   2.01086
    A7        1.94998   0.00410   0.00000   0.02402   0.02389   1.97387
    A8        1.89810  -0.00088   0.00000   0.00155   0.00140   1.89950
    A9        1.91725  -0.00121   0.00000  -0.00319  -0.00325   1.91400
   A10        1.89646  -0.00066   0.00000   0.00077   0.00063   1.89709
   A11        1.91397  -0.00082   0.00000  -0.00228  -0.00234   1.91163
   A12        1.88681  -0.00068   0.00000  -0.02235  -0.02237   1.86444
   A13        1.95409   0.00553   0.00000   0.03176   0.03158   1.98567
   A14        1.90513  -0.00131   0.00000  -0.00236  -0.00247   1.90266
   A15        1.90765  -0.00142   0.00000  -0.00241  -0.00257   1.90507
   A16        1.90757  -0.00148   0.00000  -0.00375  -0.00388   1.90369
   A17        1.90798  -0.00130   0.00000  -0.00141  -0.00157   1.90641
   A18        1.87994  -0.00022   0.00000  -0.02399  -0.02406   1.85588
   A19        1.95094   0.00328   0.00000   0.02097   0.02084   1.97178
   A20        1.90578  -0.00123   0.00000  -0.00642  -0.00652   1.89926
   A21        1.90512  -0.00070   0.00000   0.00072   0.00054   1.90565
   A22        1.91007  -0.00031   0.00000   0.00286   0.00287   1.91294
   A23        1.91316  -0.00052   0.00000   0.00393   0.00382   1.91698
   A24        1.87729  -0.00067   0.00000  -0.02387  -0.02389   1.85340
   A25        1.92941   0.00122   0.00000   0.00680   0.00676   1.93617
   A26        1.92983   0.00158   0.00000   0.00935   0.00929   1.93912
   A27        1.93113   0.00259   0.00000   0.01694   0.01685   1.94798
   A28        1.88954  -0.00169   0.00000  -0.01236  -0.01237   1.87717
   A29        1.89114  -0.00191   0.00000  -0.01108  -0.01115   1.87998
   A30        1.89156  -0.00201   0.00000  -0.01100  -0.01110   1.88046
    D1        0.00448  -0.00003   0.00000   0.00031   0.00029   0.00477
    D2        3.13993  -0.00015   0.00000  -0.00549  -0.00548   3.13446
    D3        3.14141   0.00009   0.00000   0.00383   0.00381  -3.13797
    D4       -0.00632  -0.00003   0.00000  -0.00198  -0.00196  -0.00828
    D5        2.12606  -0.00024   0.00000  -0.01226  -0.01230   2.11377
    D6       -2.06388   0.00092   0.00000   0.00464   0.00466  -2.05923
    D7       -0.00209  -0.00112   0.00000  -0.02333  -0.02334  -0.02543
    D8       -1.00967  -0.00012   0.00000  -0.00666  -0.00667  -1.01634
    D9        1.08357   0.00104   0.00000   0.01024   0.01028   1.09385
   D10       -3.13782  -0.00100   0.00000  -0.01773  -0.01772   3.12765
   D11       -1.12652  -0.00003   0.00000  -0.01416  -0.01414  -1.14066
   D12        3.04223  -0.00086   0.00000  -0.02846  -0.02846   3.01377
   D13        0.99016   0.00098   0.00000   0.00321   0.00323   0.99339
   D14        3.06246  -0.00105   0.00000  -0.03148  -0.03150   3.03096
   D15        0.94802  -0.00189   0.00000  -0.04578  -0.04582   0.90221
   D16       -1.10405  -0.00004   0.00000  -0.01412  -0.01413  -1.11817
   D17        1.00352   0.00062   0.00000  -0.00367  -0.00366   0.99985
   D18       -1.11092  -0.00021   0.00000  -0.01797  -0.01798  -1.12890
   D19        3.12019   0.00163   0.00000   0.01369   0.01371   3.13390
   D20        3.13721   0.00005   0.00000   0.00523   0.00527  -3.14070
   D21       -1.02999   0.00096   0.00000   0.01810   0.01808  -1.01191
   D22        1.01780  -0.00095   0.00000  -0.01387  -0.01385   1.00395
   D23       -1.03294   0.00099   0.00000   0.02040   0.02043  -1.01251
   D24        1.08304   0.00190   0.00000   0.03327   0.03324   1.11628
   D25        3.13083  -0.00001   0.00000   0.00130   0.00131   3.13214
   D26        1.02073  -0.00089   0.00000  -0.01156  -0.01155   1.00918
   D27        3.13671   0.00002   0.00000   0.00130   0.00126   3.13797
   D28       -1.09868  -0.00189   0.00000  -0.03066  -0.03068  -1.12936
   D29       -1.04751  -0.00005   0.00000  -0.00168  -0.00167  -1.04918
   D30        1.04473  -0.00035   0.00000  -0.00665  -0.00668   1.03804
   D31        3.14060  -0.00015   0.00000  -0.00327  -0.00327   3.13734
   D32        3.12218  -0.00044   0.00000  -0.00924  -0.00926   3.11292
   D33       -1.06877  -0.00073   0.00000  -0.01421  -0.01427  -1.08304
   D34        1.02711  -0.00053   0.00000  -0.01083  -0.01086   1.01625
   D35        1.06725   0.00087   0.00000   0.01572   0.01578   1.08302
   D36       -3.12370   0.00057   0.00000   0.01074   0.01076  -3.11294
   D37       -1.02782   0.00077   0.00000   0.01413   0.01418  -1.01365
         Item               Value     Threshold  Converged?
 Maximum Force            0.016452     0.000450     NO 
 RMS     Force            0.003118     0.000300     NO 
 Maximum Displacement     0.117734     0.001800     NO 
 RMS     Displacement     0.045706     0.001200     NO 
 Predicted change in Energy=-1.399644D-03
 GradGradGradGradGradGradGradGradGradGradGradGradGradGradGradGradGradGrad

                          Input orientation:                          
 ---------------------------------------------------------------------
 Center     Atomic      Atomic             Coordinates (Angstroms)
 Number     Number       Type             X           Y           Z
 ---------------------------------------------------------------------
      1          6           0       -0.701081    2.270499    1.344612
      2          6           0       -1.097213    1.006392    1.192950
      3          6           0       -1.445495    0.349984   -0.116961
      4          6           0       -0.574030   -0.887815   -0.425071
      5          6           0        0.910025   -0.561025   -0.642905
      6          6           0        1.758107   -1.802713   -0.948718
      7          1           0       -0.603723    2.940350    0.493308
      8          1           0       -0.459786    2.688023    2.318195
      9          1           0       -1.176311    0.362981    2.070905
     10          1           0       -2.499786    0.040573   -0.089519
     11          1           0       -1.349447    1.077707   -0.931323
     12          1           0       -0.966215   -1.387372   -1.319720
     13          1           0       -0.668606   -1.608901    0.397799
     14          1           0        0.997020    0.156888   -1.468700
     15          1           0        1.301070   -0.053435    0.245614
     16          1           0        1.710093   -2.522235   -0.124187
     17          1           0        1.402324   -2.310757   -1.851724
     18          1           0        2.810311   -1.543979   -1.104164
 ---------------------------------------------------------------------
                    Distance matrix (angstroms):
                    1          2          3          4          5
     1  C    0.000000
     2  C    1.333375   0.000000
     3  C    2.525614   1.506000   0.000000
     4  C    3.622550   2.545532   1.544840   0.000000
     5  C    3.816205   3.139453   2.579735   1.535142   0.000000
     6  C    5.281858   4.542099   3.948289   2.559317   1.534455
     7  H    1.087611   2.115000   2.791237   3.936896   3.980206
     8  H    1.086468   2.121408   3.516821   4.508345   4.604434
     9  H    2.095702   1.091347   2.204401   2.856069   3.545610
    10  H    3.203848   2.131840   1.099099   2.164033   3.506418
    11  H    2.650097   2.140384   1.096355   2.172750   2.806037
    12  H    4.533099   3.472863   2.166736   1.097161   2.158982
    13  H    3.993401   2.766898   2.169277   1.098191   2.161755
    14  H    3.907125   3.491683   2.798279   2.156099   1.097681
    15  H    3.258386   2.787910   2.799612   2.159168   1.095459
    16  H    5.562502   4.697556   4.267016   2.824726   2.180716
    17  H    5.968986   5.149874   4.266031   2.822424   2.182925
    18  H    5.733814   5.200949   4.761675   3.513613   2.188616
                    6          7          8          9         10
     6  C    0.000000
     7  H    5.491295   0.000000
     8  H    5.979839   1.847863   0.000000
     9  H    4.734888   3.075630   2.445481   0.000000
    10  H    4.718642   3.513324   4.119184   2.554009   0.000000
    11  H    4.237218   2.460715   3.734164   3.090984   1.762828
    12  H    2.780661   4.706129   5.486323   3.821546   2.429869
    13  H    2.782015   4.550715   4.711165   2.635406   2.512263
    14  H    2.165564   3.762913   4.782206   4.158683   3.760761
    15  H    2.166860   3.557013   3.861580   3.105239   3.816760
    16  H    1.095386   5.964468   6.149829   4.634030   4.928719
    17  H    1.095495   6.090774   6.770781   5.402338   4.884730
    18  H    1.094641   5.858050   6.349481   5.441573   5.633599
                   11         12         13         14         15
    11  H    0.000000
    12  H    2.524745   0.000000
    13  H    3.073756   1.757133   0.000000
    14  H    2.577322   2.502244   3.062048   0.000000
    15  H    3.112861   3.061084   2.514409   1.753726   0.000000
    16  H    4.792895   3.143220   2.600934   3.081216   2.529630
    17  H    4.461062   2.597238   3.137150   2.529872   3.082950
    18  H    4.920030   3.785913   3.789851   2.512739   2.514245
                   16         17         18
    16  H    0.000000
    17  H    1.767436   0.000000
    18  H    1.768565   1.768961   0.000000
 Stoichiometry    C6H12
 Framework group  C1[X(C6H12)]
 Deg. of freedom    48
 Full point group                 C1      NOp   1
 Largest Abelian subgroup         C1      NOp   1
 Largest concise Abelian subgroup C1      NOp   1
                         Standard orientation:                         
 ---------------------------------------------------------------------
 Center     Atomic      Atomic             Coordinates (Angstroms)
 Number     Number       Type             X           Y           Z
 ---------------------------------------------------------------------
      1          6           0        2.525099   -0.911040   -0.108462
      2          6           0        1.761047    0.025254    0.454979
      3          6           0        0.883523    1.000192   -0.284943
      4          6           0       -0.605670    0.897856    0.113002
      5          6           0       -1.258194   -0.437813   -0.270224
      6          6           0       -2.736716   -0.519318    0.132121
      7          1           0        2.568618   -1.033380   -1.188294
      8          1           0        3.136228   -1.589871    0.479859
      9          1           0        1.738824    0.112543    1.542603
     10          1           0        1.234174    2.021061   -0.077845
     11          1           0        0.985910    0.842495   -1.365055
     12          1           0       -1.159763    1.716962   -0.362193
     13          1           0       -0.700236    1.048848    1.196645
     14          1           0       -1.163197   -0.580115   -1.354489
     15          1           0       -0.700510   -1.257650    0.195485
     16          1           0       -2.854142   -0.408954    1.215588
     17          1           0       -3.320003    0.275177   -0.346067
     18          1           0       -3.180435   -1.477896   -0.155074
 ---------------------------------------------------------------------
 Rotational constants (GHZ):           7.2221415           1.6437698           1.4619326
 Standard basis: 6-31G(d,p) (6D, 7F)
 There are   150 symmetry adapted cartesian basis functions of A   symmetry.
 There are   150 symmetry adapted basis functions of A   symmetry.
   150 basis functions,   252 primitive gaussians,   150 cartesian basis functions
    24 alpha electrons       24 beta electrons
       nuclear repulsion energy       231.9552993916 Hartrees.
 NAtoms=   18 NActive=   18 NUniq=   18 SFac= 1.00D+00 NAtFMM=   60 NAOKFM=F Big=F
 Integral buffers will be    131072 words long.
 Raffenetti 2 integral format.
 Two-electron integral symmetry is turned on.
 Nuclear repulsion after empirical dispersion term =      231.9324102475 Hartrees.
 One-electron integrals computed using PRISM.
 NBasis=   150 RedAO= T EigKep=  3.93D-03  NBF=   150
 NBsUse=   150 1.00D-06 EigRej= -1.00D+00 NBFU=   150
 Initial guess from the checkpoint file:  "0-0-olefin.chk"
 B after Tr=    -0.000000   -0.000000    0.000000
         Rot=    0.999997    0.002380   -0.000841    0.000172 Ang=   0.29 deg.
 ExpMin= 1.61D-01 ExpMax= 3.05D+03 ExpMxC= 4.57D+02 IAcc=3 IRadAn=         5 AccDes= 0.00D+00
 Harris functional with IExCor=  402 and IRadAn=       5 diagonalized for initial guess.
 HarFok:  IExCor=  402 AccDes= 0.00D+00 IRadAn=         5 IDoV= 1 UseB2=F ITyADJ=14
 ICtDFT=  3500011 ScaDFX=  1.000000  1.000000  1.000000  1.000000
 FoFCou: FMM=F IPFlag=           0 FMFlag=      100000 FMFlg1=           0
         NFxFlg=           0 DoJE=T BraDBF=F KetDBF=T FulRan=T
         wScrn=  0.000000 ICntrl=       500 IOpCl=  0 I1Cent=   200000004 NGrid=           0
         NMat0=    1 NMatS0=      1 NMatT0=    0 NMatD0=    1 NMtDS0=    0 NMtDT0=    0
 Petite list used in FoFCou.
 Requested convergence on RMS density matrix=1.00D-08 within 128 cycles.
 Requested convergence on MAX density matrix=1.00D-06.
 Requested convergence on             energy=1.00D-06.
 No special actions if energy rises.
 Integral accuracy reduced to 1.0D-05 until final iterations.
 Initial convergence to 1.0D-05 achieved.  Increase integral accuracy.
 SCF Done:  E(RB3LYP) =  -235.888467826     A.U. after   10 cycles
            NFock= 10  Conv=0.59D-08     -V/T= 2.0104
 Calling FoFJK, ICntrl=      2127 FMM=F ISym2X=0 I1Cent= 0 IOpClX= 0 NMat=1 NMatS=1 NMatT=0.
 ***** Axes restored to original set *****
 -------------------------------------------------------------------
 Center     Atomic                   Forces (Hartrees/Bohr)
 Number     Number              X              Y              Z
 -------------------------------------------------------------------
      1        6           0.000220356   -0.000562458   -0.000177718
      2        6           0.000283280   -0.000301751   -0.001385162
      3        6           0.002007363   -0.000769570    0.001054385
      4        6           0.001097495    0.001665281    0.000033601
      5        6          -0.000926313   -0.001705432   -0.000073235
      6        6          -0.001804366    0.001927603    0.000617854
      7        1          -0.000105202   -0.000283086   -0.000114029
      8        1          -0.000365019   -0.000632446   -0.000152442
      9        1           0.000076519    0.000440501    0.000360566
     10        1           0.000248179   -0.000332404   -0.000349586
     11        1          -0.000223544    0.000455363   -0.000265039
     12        1          -0.000612337   -0.000155810    0.000041731
     13        1          -0.000234419   -0.000462312    0.000200315
     14        1           0.000268049    0.000453795   -0.000109358
     15        1           0.000257970    0.000525121    0.000283397
     16        1           0.000034585   -0.000305836    0.000102461
     17        1          -0.000037307   -0.000211313   -0.000132924
     18        1          -0.000185288    0.000254752    0.000065184
 -------------------------------------------------------------------
 Cartesian Forces:  Max     0.002007363 RMS     0.000702256

 GradGradGradGradGradGradGradGradGradGradGradGradGradGradGradGradGradGrad
 Berny optimization.
 Using GEDIIS/GDIIS optimizer.
 FormGI is forming the generalized inverse of G from B-inverse, IUseBI=4.
 Internal  Forces:  Max     0.003003444 RMS     0.000677272
 Search for a local minimum.
 Step number   2 out of a maximum of   94
 All quantities printed in internal units (Hartrees-Bohrs-Radians)
 Mixed Optimization -- En-DIIS/RFO-DIIS
 Update second derivatives using D2CorX and points    1    2
 DE= -1.18D-03 DEPred=-1.40D-03 R= 8.44D-01
 TightC=F SS=  1.41D+00  RLast= 1.40D-01 DXNew= 5.0454D-01 4.2026D-01
 Trust test= 8.44D-01 RLast= 1.40D-01 DXMaxT set to 4.20D-01
 ITU=  1  0
 Use linear search instead of GDIIS.
     Eigenvalues ---    0.00344   0.00416   0.00453   0.00830   0.01802
     Eigenvalues ---    0.03154   0.03156   0.03437   0.03546   0.04096
     Eigenvalues ---    0.04804   0.04845   0.05442   0.05503   0.05584
     Eigenvalues ---    0.08436   0.08536   0.09505   0.12272   0.12350
     Eigenvalues ---    0.12906   0.15658   0.16000   0.16000   0.16000
     Eigenvalues ---    0.16000   0.16106   0.21905   0.21937   0.21981
     Eigenvalues ---    0.22906   0.29478   0.29869   0.31390   0.33251
     Eigenvalues ---    0.34269   0.34484   0.34516   0.34526   0.34585
     Eigenvalues ---    0.34611   0.35032   0.35037   0.35318   0.35731
     Eigenvalues ---    0.36251   0.37247   0.62956
 RFO step:  Lambda=-9.44517778D-05 EMin= 3.44210459D-03
 Quartic linear search produced a step of -0.11251.
 Iteration  1 RMS(Cart)=  0.01575987 RMS(Int)=  0.00003736
 Iteration  2 RMS(Cart)=  0.00007621 RMS(Int)=  0.00000746
 Iteration  3 RMS(Cart)=  0.00000000 RMS(Int)=  0.00000746
 Variable       Old X    -DE/DX   Delta X   Delta X   Delta X     New X
                                 (Linear)    (Quad)   (Total)
    R1        2.51971  -0.00152  -0.00297   0.00168  -0.00129   2.51843
    R2        2.05529  -0.00009  -0.00203   0.00240   0.00037   2.05566
    R3        2.05313  -0.00046  -0.00201   0.00148  -0.00053   2.05260
    R4        2.84593  -0.00184  -0.00234  -0.00192  -0.00426   2.84167
    R5        2.06235   0.00002  -0.00175   0.00233   0.00058   2.06293
    R6        2.91932  -0.00300  -0.00272  -0.00560  -0.00832   2.91101
    R7        2.07700  -0.00015  -0.00102   0.00092  -0.00010   2.07690
    R8        2.07181   0.00048  -0.00097   0.00249   0.00152   2.07333
    R9        2.90100  -0.00222  -0.00184  -0.00425  -0.00609   2.89491
   R10        2.07333   0.00026  -0.00098   0.00192   0.00095   2.07428
   R11        2.07528   0.00047  -0.00117   0.00273   0.00156   2.07684
   R12        2.89970  -0.00258  -0.00230  -0.00464  -0.00694   2.89276
   R13        2.07432   0.00040  -0.00111   0.00247   0.00136   2.07567
   R14        2.07012   0.00057  -0.00070   0.00236   0.00166   2.07178
   R15        2.06998   0.00028  -0.00157   0.00273   0.00117   2.07115
   R16        2.07019   0.00022  -0.00156   0.00257   0.00102   2.07120
   R17        2.06857  -0.00013  -0.00152   0.00165   0.00013   2.06870
    A1        2.11936  -0.00003   0.00039  -0.00069  -0.00030   2.11906
    A2        2.13204  -0.00057   0.00010  -0.00326  -0.00316   2.12887
    A3        2.03179   0.00060  -0.00049   0.00395   0.00346   2.03525
    A4        2.19058  -0.00045  -0.00149   0.00009  -0.00139   2.18919
    A5        2.08169  -0.00036   0.00180  -0.00465  -0.00285   2.07884
    A6        2.01086   0.00081  -0.00031   0.00454   0.00424   2.01509
    A7        1.97387  -0.00095  -0.00269  -0.00047  -0.00315   1.97073
    A8        1.89950   0.00072  -0.00016   0.00499   0.00485   1.90436
    A9        1.91400   0.00008   0.00037  -0.00115  -0.00077   1.91322
   A10        1.89709  -0.00013  -0.00007  -0.00146  -0.00151   1.89558
   A11        1.91163   0.00049   0.00026   0.00148   0.00175   1.91338
   A12        1.86444  -0.00018   0.00252  -0.00357  -0.00105   1.86339
   A13        1.98567  -0.00177  -0.00355  -0.00279  -0.00632   1.97935
   A14        1.90266   0.00022   0.00028  -0.00059  -0.00029   1.90238
   A15        1.90507   0.00054   0.00029   0.00035   0.00065   1.90573
   A16        1.90369   0.00098   0.00044   0.00589   0.00634   1.91002
   A17        1.90641   0.00052   0.00018   0.00151   0.00169   1.90811
   A18        1.85588  -0.00041   0.00271  -0.00452  -0.00182   1.85407
   A19        1.97178  -0.00100  -0.00234  -0.00081  -0.00314   1.96864
   A20        1.89926   0.00043   0.00073   0.00168   0.00243   1.90169
   A21        1.90565   0.00033  -0.00006   0.00117   0.00113   1.90679
   A22        1.91294   0.00029  -0.00032   0.00182   0.00150   1.91444
   A23        1.91698   0.00033  -0.00043   0.00144   0.00103   1.91800
   A24        1.85340  -0.00033   0.00269  -0.00562  -0.00293   1.85046
   A25        1.93617   0.00028  -0.00076   0.00266   0.00190   1.93807
   A26        1.93912   0.00019  -0.00105   0.00246   0.00142   1.94054
   A27        1.94798  -0.00049  -0.00190  -0.00055  -0.00243   1.94554
   A28        1.87717  -0.00019   0.00139  -0.00236  -0.00097   1.87620
   A29        1.87998   0.00009   0.00125  -0.00127  -0.00001   1.87998
   A30        1.88046   0.00013   0.00125  -0.00121   0.00005   1.88051
    D1        0.00477   0.00001  -0.00003   0.00040   0.00037   0.00515
    D2        3.13446   0.00000   0.00062  -0.00083  -0.00022   3.13424
    D3       -3.13797  -0.00013  -0.00043  -0.00291  -0.00334  -3.14130
    D4       -0.00828  -0.00013   0.00022  -0.00415  -0.00393  -0.01221
    D5        2.11377  -0.00001   0.00138  -0.01319  -0.01180   2.10197
    D6       -2.05923  -0.00029  -0.00052  -0.01184  -0.01237  -2.07160
    D7       -0.02543  -0.00005   0.00263  -0.01393  -0.01130  -0.03673
    D8       -1.01634   0.00000   0.00075  -0.01194  -0.01118  -1.02753
    D9        1.09385  -0.00027  -0.00116  -0.01060  -0.01176   1.08209
   D10        3.12765  -0.00004   0.00199  -0.01268  -0.01069   3.11696
   D11       -1.14066   0.00029   0.00159   0.01290   0.01449  -1.12617
   D12        3.01377   0.00007   0.00320   0.00765   0.01085   3.02462
   D13        0.99339   0.00015  -0.00036   0.01318   0.01281   1.00620
   D14        3.03096   0.00009   0.00354   0.00790   0.01145   3.04241
   D15        0.90221  -0.00013   0.00515   0.00265   0.00781   0.91001
   D16       -1.11817  -0.00006   0.00159   0.00818   0.00977  -1.10840
   D17        0.99985   0.00010   0.00041   0.01218   0.01259   1.01244
   D18       -1.12890  -0.00012   0.00202   0.00693   0.00895  -1.11996
   D19        3.13390  -0.00005  -0.00154   0.01246   0.01091  -3.13837
   D20       -3.14070  -0.00002  -0.00059  -0.00617  -0.00676   3.13573
   D21       -1.01191  -0.00000  -0.00203  -0.00318  -0.00521  -1.01713
   D22        1.00395   0.00001   0.00156  -0.00832  -0.00676   0.99719
   D23       -1.01251  -0.00022  -0.00230  -0.00450  -0.00681  -1.01932
   D24        1.11628  -0.00021  -0.00374  -0.00152  -0.00526   1.11101
   D25        3.13214  -0.00019  -0.00015  -0.00665  -0.00681   3.12533
   D26        1.00918   0.00012   0.00130  -0.00581  -0.00450   1.00468
   D27        3.13797   0.00013  -0.00014  -0.00282  -0.00296   3.13501
   D28       -1.12936   0.00015   0.00345  -0.00796  -0.00450  -1.13386
   D29       -1.04918   0.00001   0.00019  -0.00002   0.00017  -1.04902
   D30        1.03804   0.00008   0.00075   0.00039   0.00114   1.03919
   D31        3.13734   0.00003   0.00037   0.00015   0.00052   3.13785
   D32        3.11292  -0.00007   0.00104  -0.00293  -0.00189   3.11103
   D33       -1.08304  -0.00000   0.00161  -0.00252  -0.00091  -1.08395
   D34        1.01625  -0.00005   0.00122  -0.00276  -0.00153   1.01472
   D35        1.08302  -0.00003  -0.00177   0.00198   0.00020   1.08322
   D36       -3.11294   0.00004  -0.00121   0.00239   0.00118  -3.11176
   D37       -1.01365  -0.00001  -0.00160   0.00215   0.00055  -1.01309
         Item               Value     Threshold  Converged?
 Maximum Force            0.003003     0.000450     NO 
 RMS     Force            0.000677     0.000300     NO 
 Maximum Displacement     0.046474     0.001800     NO 
 RMS     Displacement     0.015761     0.001200     NO 
 Predicted change in Energy=-6.564193D-05
 GradGradGradGradGradGradGradGradGradGradGradGradGradGradGradGradGradGrad

                          Input orientation:                          
 ---------------------------------------------------------------------
 Center     Atomic      Atomic             Coordinates (Angstroms)
 Number     Number       Type             X           Y           Z
 ---------------------------------------------------------------------
      1          6           0       -0.681100    2.257631    1.333517
      2          6           0       -1.089508    0.997475    1.187636
      3          6           0       -1.448930    0.343132   -0.117702
      4          6           0       -0.579510   -0.889530   -0.430127
      5          6           0        0.900661   -0.553556   -0.637476
      6          6           0        1.752694   -1.789075   -0.938852
      7          1           0       -0.581794    2.923928    0.479403
      8          1           0       -0.435193    2.673629    2.306286
      9          1           0       -1.169119    0.359516    2.069893
     10          1           0       -2.502068    0.030453   -0.085513
     11          1           0       -1.360201    1.072758   -0.932276
     12          1           0       -0.970978   -1.384566   -1.328211
     13          1           0       -0.676258   -1.616646    0.388276
     14          1           0        0.990893    0.167989   -1.460707
     15          1           0        1.284168   -0.044466    0.254546
     16          1           0        1.703265   -2.511453   -0.116082
     17          1           0        1.405725   -2.297941   -1.845471
     18          1           0        2.804508   -1.524116   -1.086748
 ---------------------------------------------------------------------
                    Distance matrix (angstroms):
                    1          2          3          4          5
     1  C    0.000000
     2  C    1.332694   0.000000
     3  C    2.522083   1.503747   0.000000
     4  C    3.609070   2.537329   1.540440   0.000000
     5  C    3.780153   3.114081   2.568032   1.531920   0.000000
     6  C    5.240501   4.512751   3.933318   2.550914   1.530783
     7  H    1.087807   2.114377   2.787287   3.920422   3.941825
     8  H    1.086188   2.118726   3.512064   4.494984   4.567818
     9  H    2.093622   1.091653   2.205478   2.856195   3.528106
    10  H    3.207786   2.133393   1.099047   2.159018   3.496326
    11  H    2.645548   2.138450   1.097159   2.170761   2.800589
    12  H    4.520445   3.466649   2.163033   1.097662   2.161186
    13  H    3.987922   2.764666   2.166509   1.099018   2.160787
    14  H    3.869090   3.468405   2.790533   2.155599   1.098399
    15  H    3.213427   2.755111   2.785431   2.157825   1.096336
    16  H    5.525459   4.670314   4.252645   2.817858   2.179309
    17  H    5.934142   5.126957   4.255527   2.815667   2.181106
    18  H    5.684079   5.166681   4.745250   3.505057   2.183681
                    6          7          8          9         10
     6  C    0.000000
     7  H    5.447355   0.000000
     8  H    5.935781   1.849769   0.000000
     9  H    4.712322   3.074219   2.439190   0.000000
    10  H    4.705516   3.518349   4.120565   2.555545   0.000000
    11  H    4.228505   2.454707   3.729171   3.091641   1.762744
    12  H    2.780938   4.688502   5.474083   3.824682   2.427100
    13  H    2.773231   4.542470   4.705670   2.641204   2.504195
    14  H    2.163972   3.719216   4.743648   4.143365   3.756442
    15  H    2.165035   3.513366   3.814955   3.078523   3.802215
    16  H    1.096003   5.926168   6.109496   4.612108   4.913965
    17  H    1.096034   6.051709   6.733690   5.387204   4.877471
    18  H    1.094709   5.805597   6.295189   5.413146   5.619511
                   11         12         13         14         15
    11  H    0.000000
    12  H    2.519265   0.000000
    13  H    3.073195   1.757000   0.000000
    14  H    2.574003   2.505378   3.063177   0.000000
    15  H    3.106353   3.063768   2.516526   1.753066   0.000000
    16  H    4.785140   3.144950   2.591754   3.081380   2.529631
    17  H    4.454872   2.598178   3.128648   2.530008   3.082693
    18  H    4.910439   3.785772   3.781532   2.508438   2.509953
                   16         17         18
    16  H    0.000000
    17  H    1.767740   0.000000
    18  H    1.769113   1.769480   0.000000
 Stoichiometry    C6H12
 Framework group  C1[X(C6H12)]
 Deg. of freedom    48
 Full point group                 C1      NOp   1
 Largest Abelian subgroup         C1      NOp   1
 Largest concise Abelian subgroup C1      NOp   1
                         Standard orientation:                         
 ---------------------------------------------------------------------
 Center     Atomic      Atomic             Coordinates (Angstroms)
 Number     Number       Type             X           Y           Z
 ---------------------------------------------------------------------
      1          6           0        2.501895   -0.918269   -0.110201
      2          6           0        1.749225    0.024622    0.455940
      3          6           0        0.881035    1.006420   -0.281334
      4          6           0       -0.605440    0.904227    0.109695
      5          6           0       -1.243905   -0.435555   -0.269943
      6          6           0       -2.718208   -0.525062    0.132197
      7          1           0        2.540997   -1.039776   -1.190493
      8          1           0        3.109177   -1.599886    0.478366
      9          1           0        1.732704    0.108592    1.544234
     10          1           0        1.230390    2.026457   -0.068306
     11          1           0        0.989024    0.854261   -1.362511
     12          1           0       -1.158384    1.721573   -0.370994
     13          1           0       -0.705643    1.060937    1.192859
     14          1           0       -1.146420   -0.582855   -1.354046
     15          1           0       -0.679399   -1.250514    0.198167
     16          1           0       -2.838157   -0.411833    1.215717
     17          1           0       -3.308544    0.263200   -0.348883
     18          1           0       -3.153356   -1.488458   -0.152234
 ---------------------------------------------------------------------
 Rotational constants (GHZ):           7.1592485           1.6673885           1.4777446
 Standard basis: 6-31G(d,p) (6D, 7F)
 There are   150 symmetry adapted cartesian basis functions of A   symmetry.
 There are   150 symmetry adapted basis functions of A   symmetry.
   150 basis functions,   252 primitive gaussians,   150 cartesian basis functions
    24 alpha electrons       24 beta electrons
       nuclear repulsion energy       232.5260124246 Hartrees.
 NAtoms=   18 NActive=   18 NUniq=   18 SFac= 1.00D+00 NAtFMM=   60 NAOKFM=F Big=F
 Integral buffers will be    131072 words long.
 Raffenetti 2 integral format.
 Two-electron integral symmetry is turned on.
 Nuclear repulsion after empirical dispersion term =      232.5030281492 Hartrees.
 One-electron integrals computed using PRISM.
 NBasis=   150 RedAO= T EigKep=  3.89D-03  NBF=   150
 NBsUse=   150 1.00D-06 EigRej= -1.00D+00 NBFU=   150
 Initial guess from the checkpoint file:  "0-0-olefin.chk"
 B after Tr=     0.000000    0.000000    0.000000
         Rot=    1.000000   -0.000227    0.000156   -0.000003 Ang=  -0.03 deg.
 ExpMin= 1.61D-01 ExpMax= 3.05D+03 ExpMxC= 4.57D+02 IAcc=3 IRadAn=         5 AccDes= 0.00D+00
 Harris functional with IExCor=  402 and IRadAn=       5 diagonalized for initial guess.
 HarFok:  IExCor=  402 AccDes= 0.00D+00 IRadAn=         5 IDoV= 1 UseB2=F ITyADJ=14
 ICtDFT=  3500011 ScaDFX=  1.000000  1.000000  1.000000  1.000000
 FoFCou: FMM=F IPFlag=           0 FMFlag=      100000 FMFlg1=           0
         NFxFlg=           0 DoJE=T BraDBF=F KetDBF=T FulRan=T
         wScrn=  0.000000 ICntrl=       500 IOpCl=  0 I1Cent=   200000004 NGrid=           0
         NMat0=    1 NMatS0=      1 NMatT0=    0 NMatD0=    1 NMtDS0=    0 NMtDT0=    0
 Petite list used in FoFCou.
 Requested convergence on RMS density matrix=1.00D-08 within 128 cycles.
 Requested convergence on MAX density matrix=1.00D-06.
 Requested convergence on             energy=1.00D-06.
 No special actions if energy rises.
 Integral accuracy reduced to 1.0D-05 until final iterations.
 Initial convergence to 1.0D-05 achieved.  Increase integral accuracy.
 SCF Done:  E(RB3LYP) =  -235.888539302     A.U. after    9 cycles
            NFock=  9  Conv=0.68D-08     -V/T= 2.0104
 Calling FoFJK, ICntrl=      2127 FMM=F ISym2X=0 I1Cent= 0 IOpClX= 0 NMat=1 NMatS=1 NMatT=0.
 ***** Axes restored to original set *****
 -------------------------------------------------------------------
 Center     Atomic                   Forces (Hartrees/Bohr)
 Number     Number              X              Y              Z
 -------------------------------------------------------------------
      1        6           0.000125936    0.000092282   -0.000056577
      2        6          -0.000320254   -0.000106251   -0.000292853
      3        6           0.000369462   -0.000055449    0.000381997
      4        6           0.000444670    0.000611032    0.000048758
      5        6          -0.000197781   -0.000964657   -0.000110897
      6        6          -0.000214207    0.000609697    0.000075411
      7        1          -0.000091630   -0.000223171    0.000156714
      8        1          -0.000036939   -0.000270029   -0.000182123
      9        1          -0.000020147    0.000270168   -0.000018334
     10        1           0.000049729    0.000069246   -0.000015460
     11        1          -0.000134844    0.000078106    0.000037792
     12        1          -0.000009712   -0.000069022    0.000087019
     13        1          -0.000025004   -0.000097183   -0.000066683
     14        1           0.000065269    0.000083556    0.000058225
     15        1          -0.000042211    0.000076931   -0.000085476
     16        1           0.000021950    0.000029388   -0.000109800
     17        1           0.000069377   -0.000017177    0.000100393
     18        1          -0.000053663   -0.000117467   -0.000008105
 -------------------------------------------------------------------
 Cartesian Forces:  Max     0.000964657 RMS     0.000231361

 GradGradGradGradGradGradGradGradGradGradGradGradGradGradGradGradGradGrad
 Berny optimization.
 Using GEDIIS/GDIIS optimizer.
 FormGI is forming the generalized inverse of G from B-inverse, IUseBI=4.
 Internal  Forces:  Max     0.000526300 RMS     0.000134075
 Search for a local minimum.
 Step number   3 out of a maximum of   94
 All quantities printed in internal units (Hartrees-Bohrs-Radians)
 Mixed Optimization -- En-DIIS/RFO-DIIS
 Swapping is turned off.
 Update second derivatives using D2CorX and points    1    2    3
 DE= -7.15D-05 DEPred=-6.56D-05 R= 1.09D+00
 TightC=F SS=  1.41D+00  RLast= 5.16D-02 DXNew= 7.0679D-01 1.5490D-01
 Trust test= 1.09D+00 RLast= 5.16D-02 DXMaxT set to 4.20D-01
 ITU=  1  1  0
     Eigenvalues ---    0.00350   0.00416   0.00453   0.00777   0.01796
     Eigenvalues ---    0.03153   0.03179   0.03482   0.03553   0.04117
     Eigenvalues ---    0.04696   0.04848   0.05429   0.05513   0.05574
     Eigenvalues ---    0.08411   0.08510   0.09526   0.12244   0.12321
     Eigenvalues ---    0.12906   0.14995   0.16000   0.16000   0.16000
     Eigenvalues ---    0.16001   0.16145   0.21893   0.21936   0.21999
     Eigenvalues ---    0.24004   0.29124   0.29878   0.32277   0.32672
     Eigenvalues ---    0.34157   0.34345   0.34513   0.34523   0.34591
     Eigenvalues ---    0.34674   0.34964   0.35035   0.35152   0.35619
     Eigenvalues ---    0.36279   0.36354   0.62223
 En-DIIS/RFO-DIIS/Sim-DIIS IScMMF=       -3 using points:     3    2
 RFO step:  Lambda=-1.20618143D-05.
 DidBck=F Rises=F RFO-DIIS coefs:    1.06366   -0.06366
 Iteration  1 RMS(Cart)=  0.00506359 RMS(Int)=  0.00001603
 Iteration  2 RMS(Cart)=  0.00002414 RMS(Int)=  0.00000050
 Iteration  3 RMS(Cart)=  0.00000000 RMS(Int)=  0.00000050
 Variable       Old X    -DE/DX   Delta X   Delta X   Delta X     New X
                                 (Linear)    (Quad)   (Total)
    R1        2.51843  -0.00039  -0.00008  -0.00055  -0.00063   2.51780
    R2        2.05566  -0.00027   0.00002  -0.00069  -0.00067   2.05499
    R3        2.05260  -0.00027  -0.00003  -0.00073  -0.00076   2.05184
    R4        2.84167  -0.00053  -0.00027  -0.00170  -0.00197   2.83970
    R5        2.06293  -0.00017   0.00004  -0.00042  -0.00039   2.06254
    R6        2.91101  -0.00008  -0.00053  -0.00030  -0.00083   2.91018
    R7        2.07690  -0.00007  -0.00001  -0.00017  -0.00017   2.07673
    R8        2.07333   0.00001   0.00010   0.00012   0.00022   2.07355
    R9        2.89491  -0.00040  -0.00039  -0.00147  -0.00186   2.89305
   R10        2.07428  -0.00004   0.00006  -0.00005   0.00001   2.07429
   R11        2.07684   0.00002   0.00010   0.00014   0.00024   2.07708
   R12        2.89276  -0.00052  -0.00044  -0.00188  -0.00232   2.89044
   R13        2.07567   0.00002   0.00009   0.00013   0.00022   2.07589
   R14        2.07178  -0.00005   0.00011  -0.00009   0.00002   2.07179
   R15        2.07115  -0.00010   0.00007  -0.00021  -0.00014   2.07101
   R16        2.07120  -0.00010   0.00006  -0.00020  -0.00014   2.07107
   R17        2.06870  -0.00008   0.00001  -0.00017  -0.00016   2.06854
    A1        2.11906  -0.00002  -0.00002  -0.00015  -0.00017   2.11889
    A2        2.12887  -0.00016  -0.00020  -0.00116  -0.00136   2.12751
    A3        2.03525   0.00018   0.00022   0.00131   0.00153   2.03677
    A4        2.18919  -0.00008  -0.00009  -0.00034  -0.00043   2.18876
    A5        2.07884  -0.00016  -0.00018  -0.00128  -0.00147   2.07738
    A6        2.01509   0.00023   0.00027   0.00160   0.00187   2.01697
    A7        1.97073   0.00016  -0.00020   0.00110   0.00090   1.97162
    A8        1.90436  -0.00009   0.00031  -0.00061  -0.00030   1.90405
    A9        1.91322  -0.00008  -0.00005  -0.00047  -0.00052   1.91271
   A10        1.89558   0.00002  -0.00010   0.00042   0.00033   1.89591
   A11        1.91338   0.00002   0.00011   0.00061   0.00072   1.91410
   A12        1.86339  -0.00004  -0.00007  -0.00118  -0.00125   1.86214
   A13        1.97935   0.00022  -0.00040   0.00155   0.00115   1.98050
   A14        1.90238  -0.00006  -0.00002  -0.00046  -0.00048   1.90190
   A15        1.90573  -0.00003   0.00004   0.00049   0.00053   1.90626
   A16        1.91002  -0.00007   0.00040  -0.00050  -0.00010   1.90992
   A17        1.90811  -0.00004   0.00011   0.00035   0.00045   1.90856
   A18        1.85407  -0.00003  -0.00012  -0.00164  -0.00175   1.85231
   A19        1.96864   0.00019  -0.00020   0.00135   0.00115   1.96979
   A20        1.90169  -0.00002   0.00015   0.00023   0.00039   1.90208
   A21        1.90679  -0.00008   0.00007  -0.00045  -0.00038   1.90641
   A22        1.91444  -0.00006   0.00010  -0.00006   0.00004   1.91448
   A23        1.91800  -0.00001   0.00007   0.00032   0.00039   1.91839
   A24        1.85046  -0.00003  -0.00019  -0.00159  -0.00178   1.84868
   A25        1.93807   0.00003   0.00012   0.00016   0.00028   1.93835
   A26        1.94054   0.00007   0.00009   0.00049   0.00058   1.94112
   A27        1.94554   0.00013  -0.00015   0.00106   0.00090   1.94644
   A28        1.87620  -0.00007  -0.00006  -0.00083  -0.00089   1.87531
   A29        1.87998  -0.00007  -0.00000  -0.00049  -0.00050   1.87948
   A30        1.88051  -0.00009   0.00000  -0.00049  -0.00049   1.88002
    D1        0.00515   0.00005   0.00002   0.00234   0.00236   0.00750
    D2        3.13424   0.00002  -0.00001   0.00002   0.00000   3.13424
    D3       -3.14130   0.00008  -0.00021   0.00306   0.00285  -3.13845
    D4       -0.01221   0.00004  -0.00025   0.00074   0.00050  -0.01172
    D5        2.10197  -0.00007  -0.00075  -0.00894  -0.00969   2.09228
    D6       -2.07160  -0.00001  -0.00079  -0.00811  -0.00890  -2.08050
    D7       -0.03673  -0.00015  -0.00072  -0.01014  -0.01086  -0.04759
    D8       -1.02753  -0.00004  -0.00071  -0.00667  -0.00738  -1.03491
    D9        1.08209   0.00003  -0.00075  -0.00584  -0.00659   1.07550
   D10        3.11696  -0.00011  -0.00068  -0.00788  -0.00856   3.10840
   D11       -1.12617  -0.00005   0.00092  -0.00640  -0.00548  -1.13165
   D12        3.02462  -0.00006   0.00069  -0.00647  -0.00578   3.01884
   D13        1.00620   0.00003   0.00082  -0.00453  -0.00372   1.00249
   D14        3.04241  -0.00005   0.00073  -0.00663  -0.00591   3.03650
   D15        0.91001  -0.00006   0.00050  -0.00670  -0.00621   0.90381
   D16       -1.10840   0.00002   0.00062  -0.00477  -0.00415  -1.11255
   D17        1.01244  -0.00002   0.00080  -0.00580  -0.00500   1.00744
   D18       -1.11996  -0.00004   0.00057  -0.00587  -0.00530  -1.12525
   D19       -3.13837   0.00005   0.00069  -0.00393  -0.00324   3.14158
   D20        3.13573   0.00003  -0.00043   0.00085   0.00042   3.13615
   D21       -1.01713   0.00006  -0.00033   0.00185   0.00152  -1.01561
   D22        0.99719  -0.00003  -0.00043  -0.00017  -0.00060   0.99660
   D23       -1.01932   0.00005  -0.00043   0.00095   0.00051  -1.01880
   D24        1.11101   0.00008  -0.00034   0.00195   0.00161   1.11263
   D25        3.12533  -0.00001  -0.00043  -0.00007  -0.00050   3.12483
   D26        1.00468  -0.00005  -0.00029  -0.00110  -0.00139   1.00329
   D27        3.13501  -0.00001  -0.00019  -0.00010  -0.00029   3.13472
   D28       -1.13386  -0.00011  -0.00029  -0.00212  -0.00240  -1.13626
   D29       -1.04902   0.00003   0.00001   0.00014   0.00016  -1.04886
   D30        1.03919  -0.00000   0.00007  -0.00047  -0.00040   1.03879
   D31        3.13785   0.00002   0.00003  -0.00004  -0.00001   3.13784
   D32        3.11103  -0.00003  -0.00012  -0.00103  -0.00115   3.10988
   D33       -1.08395  -0.00006  -0.00006  -0.00165  -0.00170  -1.08565
   D34        1.01472  -0.00004  -0.00010  -0.00122  -0.00132   1.01340
   D35        1.08322   0.00004   0.00001   0.00074   0.00075   1.08398
   D36       -3.11176   0.00001   0.00007   0.00012   0.00020  -3.11156
   D37       -1.01309   0.00003   0.00004   0.00055   0.00058  -1.01251
         Item               Value     Threshold  Converged?
 Maximum Force            0.000526     0.000450     NO 
 RMS     Force            0.000134     0.000300     YES
 Maximum Displacement     0.025947     0.001800     NO 
 RMS     Displacement     0.005066     0.001200     NO 
 Predicted change in Energy=-6.033950D-06
 GradGradGradGradGradGradGradGradGradGradGradGradGradGradGradGradGradGrad

                          Input orientation:                          
 ---------------------------------------------------------------------
 Center     Atomic      Atomic             Coordinates (Angstroms)
 Number     Number       Type             X           Y           Z
 ---------------------------------------------------------------------
      1          6           0       -0.678063    2.254278    1.333416
      2          6           0       -1.094714    0.997117    1.188034
      3          6           0       -1.449157    0.342858   -0.117507
      4          6           0       -0.578580   -0.888869   -0.428217
      5          6           0        0.900093   -0.553006   -0.639128
      6          6           0        1.752781   -1.786876   -0.939181
      7          1           0       -0.569746    2.917753    0.478651
      8          1           0       -0.434053    2.668891    2.306804
      9          1           0       -1.182849    0.362876    2.071906
     10          1           0       -2.502278    0.030115   -0.088649
     11          1           0       -1.359486    1.073325   -0.931381
     12          1           0       -0.971384   -1.386621   -1.324222
     13          1           0       -0.673818   -1.615281    0.391159
     14          1           0        0.988755    0.167594   -1.463512
     15          1           0        1.284514   -0.040784    0.250717
[...]
 67719,0.0148096,-0.0721918,0.0053199,0.0447138,-0.0213788,0.0291726,0.
 0175715,-0.0785529,0.0874864,-0.0032678,0.0510626,-0.0938841,-0.024737
 4,-0.0028425,-0.0280151,-0.0368109,-0.0583373,-0.102536,-0.0615352,-0.
 1242895,-0.1127016,-0.010911,0.0103679,0.0195609,-0.0063229,-0.0691451
 ,0.0916426,0.0278986,0.1269529,-0.0751609,-0.0065706,0.0211706,0.00842
 27,-0.000587,-0.0922976,0.1057614,0.0257511,0.1010469,-0.0705375,0.000
 8881,-0.0414773,-0.0486023,-0.0414953,-0.0206688,-0.0648066,-0.0526333
 ,-0.0804434,-0.0771061,0.0466988,-0.0127691,0.0268208,0.0281656,-0.068
 8091,0.0807707,0.002519,0.1152155,-0.0738446,0.0198563,-0.0353547,-0.0
 760201,0.0068603,-0.0283031,-0.0822016,-0.0404818,-0.0987441,-0.095118
 3,-0.1893993,0.0100814,0.051319,-0.0272897,0.0111084,-0.004293,0.04091
 18,-0.0082854,0.0523915\Polar=56.8226607,1.3264503,74.6391674,-0.89245
 85,7.5691341,61.5711272\Quadrupole=-0.7243556,-0.0753138,0.7996694,0.8
 447257,0.2770565,-0.4830885\PG=C01 [X(C6H12)]\NImag=0\\0.18559813,0.22
 681977,0.78650581,0.06230338,0.01122244,0.64168806,-0.10165166,-0.1580
 9136,-0.02133725,0.22601331,-0.15855486,-0.51310663,-0.04182163,0.2073
 9341,0.80211120,-0.02036661,-0.03987371,-0.11656373,0.03910815,-0.0186
 2813,0.56648205,0.00317108,-0.00811315,-0.01071906,-0.08367757,-0.0174
 8630,-0.02945982,0.52641921,-0.01131944,-0.01473952,-0.02992769,-0.015
 87888,-0.10377064,-0.03877663,0.05214647,0.50338291,-0.00416689,-0.007
 91277,-0.00134403,-0.02928795,-0.04275597,-0.19226642,-0.00231142,-0.0
 5896199,0.53260317,-0.00242148,-0.00148337,-0.00238757,0.00809347,-0.0
 0501670,0.00401160,-0.10639499,0.04253728,0.00687579,0.46583819,0.0015
 5556,0.00189693,0.00004419,0.00420910,-0.01999694,-0.01312984,0.045711
 10,-0.13988840,-0.00933662,0.02808016,0.51639214,-0.00066079,0.0003969
 6,-0.00329736,0.01662613,-0.02805288,-0.00698795,0.01323400,-0.0134643
 4,-0.08305482,0.02722804,-0.01114585,0.58626631,-0.00073945,-0.0005047
 5,-0.00031486,0.00011514,0.00033946,0.00025552,-0.02186387,0.00169616,
 0.00447378,-0.17738071,-0.03081031,0.01167677,0.46882172,-0.00022971,0
 .00010837,-0.00058719,0.00201221,0.00054576,0.00139146,0.02794859,0.00
 757770,-0.00403133,-0.02961169,-0.08875852,0.00336924,0.01948668,0.533
 22896,-0.00079812,-0.00030776,0.00051067,0.00149534,0.00077037,0.00006
 574,0.00722855,0.00123863,-0.00140731,0.01347108,0.00350484,-0.0837753
 5,0.02516384,-0.00731912,0.58828202,0.00059646,0.00029547,0.00019763,-
 0.00018749,-0.00084217,-0.00090758,-0.00546344,-0.00247661,0.00080689,
 -0.02384227,0.02909728,0.00785768,-0.11342006,0.05017503,0.01182673,0.
 54918015,0.00023894,0.00004617,0.00019141,-0.00017126,-0.00012598,-0.0
 0054934,-0.00299887,-0.00093060,0.00073291,0.00048965,0.00758218,0.000
 83234,0.05200537,-0.15822963,-0.01856677,0.04471128,0.50610828,0.00038
 602,0.00020978,-0.00013082,0.00013809,-0.00044015,0.00018257,0.0002822
 2,0.00055538,-0.00051803,0.00404323,-0.00403102,-0.00136024,0.01205557
 ,-0.01832046,-0.08483791,0.00849586,-0.01490744,0.56455697,-0.04031277
 ,-0.02437627,0.02102426,0.00386934,-0.00692890,0.00839479,-0.00744330,
 0.00270939,0.00187630,0.00088595,0.00046142,0.00062770,0.00021987,0.00
 003802,0.00013636,-0.00010716,-0.00003532,-0.00003492,0.03067293,-0.02
 494709,-0.15335216,0.13009450,-0.00365398,-0.01502824,0.02630597,0.003
 18703,0.00048499,0.00193765,-0.00023271,-0.00014818,-0.00042295,-0.000
 14944,-0.00004034,0.00004755,0.00007644,0.00002461,-0.00002521,0.02974
 403,0.16198577,0.02218005,0.13364642,-0.23431070,-0.00091248,-0.002129
 11,0.00440128,0.00056291,-0.00183440,0.00126813,-0.00002227,-0.0001833
 2,0.00004707,0.00002117,0.00005634,-0.00004831,-0.00002929,-0.00000777
 ,0.00000118,-0.02399876,-0.14577053,0.24224241,-0.04946794,-0.02983174
 ,-0.05773801,0.00053516,-0.00373779,-0.01020565,0.01257863,-0.00501093
 ,-0.00036052,-0.00152587,-0.00097386,-0.00220470,-0.00033660,-0.000020
 22,-0.00000590,0.00005334,0.00004151,-0.00001365,0.00249684,0.00113540
 ,0.00343992,0.04181450,-0.02971909,-0.09314123,-0.09093688,-0.00675174
 ,-0.00792172,-0.02985571,-0.00501452,-0.00197178,0.00274086,-0.0001710
 7,0.00030442,-0.00016751,-0.00002722,-0.00015104,0.00006241,0.00005776
 ,0.00006340,-0.00001505,0.00402904,0.00858757,0.01631774,0.03493478,0.
 09483797,-0.05919786,-0.09494939,-0.28934279,0.00038792,0.00197223,0.0
 0034662,-0.00125611,0.00053488,0.00132978,-0.00014217,-0.00000964,0.00
 026118,0.00000171,-0.00001229,-0.00007656,-0.00000727,0.00002066,0.000
 03014,-0.00515984,-0.00998321,-0.01548163,0.06440565,0.10359793,0.3013
 3888,0.00425129,-0.00770799,0.00904070,-0.04501909,-0.01860754,0.01816
 522,0.00302535,0.00443087,-0.00676913,0.00024218,-0.00049496,-0.000079
 58,0.00005198,0.00003475,0.00000735,-0.00004812,-0.00002905,-0.0000034
 0,0.01022163,-0.00525052,-0.00146742,-0.00678477,0.00265115,0.00079219
 ,0.03241486,-0.00395381,-0.01530509,0.02728706,-0.01915937,-0.14190740
 ,0.12224026,0.00129830,0.00809193,-0.01160180,-0.00020111,0.00151499,-
 0.00001979,0.00006247,0.00004030,0.00011149,0.00001700,-0.00000469,0.0
 0001994,-0.00516264,-0.00339590,-0.00063584,0.00257916,0.00023981,-0.0
 0056574,0.02563934,0.15107402,-0.00132414,-0.00362470,0.00479742,0.019
 68496,0.12601532,-0.23355606,0.00323196,0.01711116,-0.02019374,-0.0004
 7055,0.00168267,0.00053688,-0.00000971,-0.00028231,-0.00002902,0.00010
 663,0.00006036,0.00003234,-0.00149007,-0.00079845,0.00132058,0.0009341
 3,-0.00021931,0.00119425,-0.01884865,-0.13537561,0.24823359,0.00011888
 ,0.00109428,-0.00145644,-0.00604253,-0.00467847,-0.00116047,-0.2757613
 5,-0.07149634,0.00834235,-0.01954320,-0.00517535,0.00156348,-0.0000724
 4,0.00488836,0.00069466,-0.00104295,-0.00092019,0.00001516,-0.00028099
 ,0.00021007,0.00004922,0.00028057,-0.00038013,-0.00004979,0.00047671,-
 0.00004195,-0.00050723,0.30192020,-0.00013145,0.00058020,-0.00238076,-
 0.01491570,-0.00777435,-0.00144273,-0.07337501,-0.06624639,0.00676888,
 0.02899344,0.00662646,-0.00197238,0.00149834,-0.00502384,-0.00067489,0
 .00145253,0.00078266,-0.00028619,-0.00101332,0.00054730,0.00007056,0.0
 0139809,-0.00093398,-0.00053783,0.00054719,0.00043380,-0.00015670,0.07
 699517,0.07555931,-0.00024251,-0.00030069,-0.00336392,-0.02998025,-0.0
 1178480,0.00072827,0.00538015,0.00523700,-0.04956734,0.00649622,0.0025
 9744,-0.00075207,0.00085201,-0.00186686,0.00012979,0.00049753,0.000225
 02,0.00035911,-0.00072436,0.00007021,0.00012781,0.00176163,-0.00139373
 ,-0.00024182,0.00090459,0.00066499,0.00077293,-0.00790017,0.00030568,0
 .05186947,-0.00028313,0.00083551,-0.00018355,0.00035207,0.00547486,-0.
 00657235,-0.05233630,-0.01751442,0.01760736,0.00079851,0.01341097,-0.0
 1413758,0.00131506,0.00054217,-0.00152877,0.00003021,0.00008038,0.0000
 8814,0.00012686,-0.00016338,0.00017039,-0.00012187,0.00012715,0.000143
 07,0.00126881,-0.00077705,-0.00168551,-0.00192224,-0.02036844,0.023233
 94,0.05229617,0.00038289,0.00106753,-0.00133377,0.00139392,0.00943905,
 -0.01157057,-0.01678709,-0.16096924,0.12688523,-0.00168618,-0.01932912
 ,0.01990125,-0.00174637,0.00084357,0.00057539,0.00001012,0.00013567,-0
 .00032656,0.00001812,0.00014702,0.00053637,0.00016441,0.00022215,0.000
 04482,-0.00110042,-0.00064870,-0.00290785,-0.00074864,-0.00642368,0.00
 653681,0.01630258,0.17781576,0.00077884,0.00148029,0.00168162,0.003303
 12,0.02001147,-0.02472579,0.01669983,0.12425569,-0.18808048,-0.0006916
 4,-0.00459184,0.00548945,-0.00014844,-0.00024919,0.00030280,-0.0001470
 5,-0.00022798,0.00022331,-0.00045120,-0.00136347,0.00053885,0.00001395
 ,-0.00012098,0.00062243,-0.00176403,-0.00284475,-0.00401353,0.00052237
 ,0.00000100,-0.00052180,-0.01856963,-0.13542186,0.20717739,0.00058743,
 0.00035337,0.00097610,-0.00210948,0.00354495,-0.00053788,0.00502978,0.
 00933421,0.01781010,-0.07924732,-0.04080892,-0.07472825,-0.01409231,-0
 .01454127,-0.02791773,0.00151053,-0.00109003,-0.00122545,-0.00019745,0
 .00010022,-0.00003133,0.00045161,0.00016481,0.00000664,-0.00009169,-0.
 00017351,-0.00003893,0.00101495,-0.00065252,0.00027752,0.00041295,-0.0
 0056032,-0.00044485,0.09102201,-0.00037969,-0.00001685,-0.00129562,0.0
 0381582,-0.00384933,0.00152720,-0.00791535,-0.01300600,-0.02365125,-0.
 04076512,-0.09821810,-0.09105581,-0.00378064,-0.00442099,-0.00714353,0
 .00078602,0.00046990,0.00063291,0.00029940,-0.00009518,-0.00000282,-0.
 00070007,-0.00013222,0.00000662,-0.00002306,0.00010150,-0.00031502,-0.
 00019270,0.00131177,0.00034331,-0.00075088,0.00050648,0.00039988,0.043
 07026,0.10661638,0.00011979,0.00003022,-0.00027462,0.00094193,-0.00178
 617,0.00108181,-0.00190756,-0.00133612,-0.00490974,-0.07422019,-0.0916
 8793,-0.22162056,0.00237275,0.00226526,0.00417092,0.00008233,0.0002863
 0,0.00033079,-0.00000143,-0.00004135,0.00001134,-0.00019042,-0.0000253
 4,0.00001208,-0.00002666,0.00027740,0.00042635,0.00046426,0.00012791,0
 .00002940,0.00016995,-0.00030967,0.00056902,0.08036144,0.10257358,0.23
 804845,0.00006733,0.00009786,0.00010408,0.00034550,-0.00092231,-0.0005
 6523,0.00078282,0.01360160,-0.01489276,-0.04943929,-0.01335385,0.01400
 497,-0.00463045,-0.02159579,0.02651938,0.00180480,-0.00127606,0.000427
 77,-0.00010324,-0.00005718,0.00000955,-0.00000432,0.00000550,0.0000462
 0,0.00010036,-0.00007699,0.00038750,0.00049550,-0.00062113,-0.00043031
 ,-0.00169825,0.00345247,0.00127527,0.00054893,0.00796527,-0.00861293,0
 .05695413,-0.00010099,-0.00003082,-0.00055287,-0.00050268,0.00102920,0
 .00219357,-0.00135974,-0.01950842,0.02002263,-0.01361582,-0.15403445,0
 .12178000,-0.00133730,-0.00615835,0.00665329,0.00065412,0.00060271,-0.
 00074834,0.00020822,0.00022431,-0.00006192,-0.00004641,-0.00000891,-0.
 00009646,-0.00001153,-0.00016949,-0.00121050,0.00002358,0.00094933,-0.
 00021778,0.00344344,-0.00368259,-0.00145898,0.00142559,0.01017489,-0.0
 1090634,0.01294300,0.16963475,0.00004201,-0.00007202,0.00026260,-0.000
 36072,-0.00078992,0.00094765,-0.00075356,-0.00485925,0.00517070,0.0143
 2411,0.12212249,-0.19259660,0.00055366,0.00284906,-0.00377437,-0.00048
 600,0.00027591,0.00000203,-0.00004646,-0.00003030,-0.00013291,0.000077
 26,0.00004182,-0.00002223,0.00010011,0.00039917,0.00032021,-0.00055179
 ,0.00041715,0.00021790,0.00066029,-0.00180726,0.00075312,0.00217464,0.
 01779795,-0.02053937,-0.01781002,-0.13519468,0.20670201,0.00005045,0.0
 0002042,0.00001607,0.00000688,0.00012633,-0.00004032,0.00154041,-0.001
 46321,0.00055770,-0.00496711,-0.02148255,0.02686568,-0.04911560,-0.012
 51444,0.01296363,0.00058025,0.01322278,-0.01530352,-0.00000105,0.00004
 705,0.00003069,0.00002107,0.00001169,-0.00000684,-0.00000890,-0.000056
 81,-0.00018658,0.00032987,-0.00000946,-0.00048553,-0.00017472,0.000960
 86,-0.00048571,0.00144443,0.00031925,-0.00051381,-0.00659461,-0.001553
 13,0.00106886,0.05698647,-0.00002237,-0.00008621,0.00015171,-0.0002502
 3,0.00012205,0.00000279,0.00064605,0.00060718,-0.00073600,-0.00137935,
 -0.00613325,0.00681846,-0.01258276,-0.15226228,0.12181789,-0.00100087,
 -0.01865255,0.02079195,0.00003885,0.00000640,-0.00001702,-0.00000502,0
 .00002290,0.00000872,-0.00002002,-0.00003654,-0.00002770,-0.00001479,0
 .00010599,-0.00018780,-0.00028514,0.00055987,0.00008746,0.00018733,-0.
 00005172,-0.00008930,-0.00152876,0.00026281,-0.00003985,0.01209678,0.1
 6735278,0.00007033,0.00007474,-0.00009369,-0.00003525,-0.00017755,0.00
 006677,-0.00044469,0.00058246,-0.00008653,0.00061038,0.00273305,-0.004
 00988,0.01326302,0.12262917,-0.19635908,-0.00049795,-0.00565630,0.0059
 8996,0.00008365,-0.00016897,0.00006363,-0.00006801,-0.00000884,0.00007
 782,-0.00005230,0.00001477,0.00017832,0.00000594,-0.00029359,0.0002236
 7,0.00049527,-0.00065895,0.00013063,0.00041996,-0.00026369,0.00093715,
 0.00104035,-0.00002129,0.00149173,-0.01689555,-0.13554356,0.20988644,0
 .00057792,0.00062574,0.00040671,-0.00052186,-0.00020241,0.00004471,0.0
 0109762,-0.00040398,-0.00071393,-0.01392905,-0.01514607,-0.02816744,-0
 .07913820,-0.04157300,-0.07297147,0.00637821,0.00979653,0.01717846,-0.
 00005221,-0.00001994,0.00000402,-0.00001099,0.00006782,0.00001294,-0.0
 0012746,0.00001863,0.00017735,0.00035543,-0.00007502,0.00022583,-0.000
 09780,0.00011956,0.00003752,-0.00647573,-0.00158660,0.00150637,0.00139
 053,0.00021232,0.00043033,0.00062579,0.00153394,0.00208543,0.09043110,
 0.00018076,-0.00047075,-0.00008309,0.00054444,0.00026562,-0.00018820,0
 .00054819,0.00002909,0.00027102,-0.00421310,-0.00395661,-0.00657919,-0
 .04205833,-0.10305806,-0.09459839,-0.00861692,-0.01358849,-0.02278885,
 0.00002093,-0.00002050,0.00003054,0.00006309,0.00001097,0.00000729,-0.
 00006233,-0.00004483,0.00012283,-0.00007306,-0.00005176,-0.00000364,-0
 .00004957,0.00004751,0.00005311,-0.00138335,0.00012773,0.00013190,0.00
 029213,-0.00000372,-0.00029188,0.00796940,0.01024898,0.01774850,0.0442
 7533,0.11254652,0.00087236,-0.00005953,-0.00027699,0.00036418,-0.00065
 807,-0.00020677,-0.00030962,-0.00035992,-0.00001186,0.00150655,0.00288
 344,0.00460755,-0.07411904,-0.09446570,-0.22224416,-0.00122468,-0.0023
 1897,-0.00435524,-0.00021609,0.00013864,-0.00005496,0.00012184,-0.0000
 1301,-0.00003247,0.00002156,0.00003148,-0.00004011,-0.00015851,0.00017
 275,0.00007940,-0.00001737,-0.00004030,-0.00003350,0.00155918,0.000188
 87,0.00134353,-0.00052914,-0.00001411,0.00082989,-0.00876117,-0.011175
 29,-0.02079672,0.07924731,0.10636872,0.23890316,-0.00003978,-0.0000114
 1,-0.00002775,0.00003926,0.00000291,0.00003346,-0.00000149,0.00006611,
 0.00012141,0.00137488,0.00057346,-0.00156587,0.00013737,0.01213098,-0.
 01520653,-0.04936852,-0.00878808,0.00944848,0.00001079,-0.00002229,0.0
 0000271,-0.00000789,-0.00001053,0.00000048,0.00000500,0.00000440,0.000
 02308,-0.00000700,-0.00005346,0.00004056,0.00000650,-0.00021201,0.0000
 9855,-0.00006053,-0.00000626,0.00000826,-0.00023111,-0.00028861,0.0005
 7204,-0.00173191,0.00338822,0.00089953,0.00053049,-0.00085359,0.000263
 24,0.04960527,0.00003255,-0.00000789,-0.00000942,-0.00000028,-0.000054
 88,0.00008077,-0.00003005,0.00008507,-0.00029963,-0.00163710,0.0006716
 0,0.00050632,-0.00116626,-0.01903034,0.02164186,-0.00854729,-0.1562609
 8,0.12787236,-0.00001720,0.00004979,-0.00001650,0.00000263,-0.00000641
 ,-0.00002470,0.00001609,0.00001109,-0.00006229,0.00006245,0.00002867,-
 0.00008723,-0.00019494,0.00025584,-0.00005575,0.00009871,0.00006372,-0
 .00008640,0.00093352,0.00058833,-0.00054484,0.00370357,-0.00390676,-0.
 00187943,-0.00077104,0.00078744,-0.00011945,0.00640921,0.17141675,-0.0
 0003516,-0.00000359,0.00000655,-0.00002448,0.00005203,-0.00004720,-0.0
 0017279,-0.00025800,0.00027038,-0.00011300,-0.00021324,0.00027421,-0.0
 0052357,-0.00501556,0.00620806,0.00916731,0.12826481,-0.20033807,0.000
 00482,-0.00000636,0.00000284,0.00000779,0.00000083,0.00000104,0.000002
 46,-0.00000264,0.00000755,-0.00006382,0.00007511,-0.00000197,0.0001152
 9,-0.00005679,-0.00007890,0.00005611,0.00008813,-0.00006788,-0.0005021
 8,0.00010662,0.00018011,0.00122033,-0.00160663,0.00117907,-0.00046082,
 0.00034361,0.00085336,-0.01111466,-0.14085651,0.21462898,-0.00016950,-
 0.00006201,-0.00004033,-0.00001113,0.00011478,0.00011604,0.00014310,0.
 00000844,-0.00016217,0.00170528,0.00036282,0.00113840,0.00608585,0.008
 53683,0.01698444,-0.07669931,-0.03967895,-0.07056861,0.00001662,-0.000
 00803,0.00000470,-0.00000638,-0.00001487,-0.00000408,0.00000935,-0.000
 00856,-0.00001881,0.00000940,-0.00003596,-0.00004268,0.00001861,-0.000
 02917,0.00000936,-0.00015976,-0.00018216,-0.00050417,-0.00008195,-0.00
 003256,-0.00000391,0.00055016,-0.00086223,-0.00037236,-0.00178276,0.00
 341832,0.00098776,-0.00017882,0.00139020,0.00238117,0.07977417,0.00025
 201,0.00010446,0.00000841,-0.00005708,-0.00015775,-0.00001735,-0.00006
 937,0.00001935,0.00029609,-0.00164387,0.00069798,0.00024280,-0.0092681
 8,-0.01375602,-0.02399778,-0.03940942,-0.10254214,-0.09780294,-0.00005
 045,0.00002966,-0.00000636,0.00001369,0.00000341,-0.00000385,-0.000020
 07,0.00000971,0.00001998,0.00004895,-0.00000248,0.00001816,-0.00002881
 ,-0.00003194,-0.00001400,0.00091835,0.00048452,0.00030454,0.00014984,0
 .00006773,0.00007161,-0.00077059,0.00075219,0.00041050,0.00390994,-0.0
 0395894,-0.00057968,0.00789491,0.01097096,0.01778546,0.04065401,0.1118
 2928,0.00008400,0.00005183,0.00005486,-0.00007764,0.00007069,-0.000027
 24,0.00025427,0.00009284,0.00028068,-0.00079459,0.00023979,-0.00002069
 ,-0.00146587,-0.00267018,-0.00488498,-0.07020141,-0.09809053,-0.226726
 26,-0.00002933,0.00001618,0.00000049,0.00001550,0.00000861,-0.00000239
 ,-0.00002025,-0.00000331,0.00001942,0.00007932,-0.00005352,-0.00003364
 ,-0.00003162,0.00002232,-0.00001718,0.00085781,0.00002640,0.00021304,-
 0.00001845,-0.00005189,-0.00006861,0.00040604,-0.00010787,0.00086914,0
 .00084699,-0.00091208,0.00147812,-0.00855133,-0.01190553,-0.01998432,0
 .07714088,0.11002424,0.24399061,0.00006676,0.00003963,0.00013588,-0.00
 014931,-0.00001925,-0.00031358,-0.00084568,-0.00096671,0.00019308,-0.0
 0024717,0.00478401,0.00072136,-0.01595730,-0.00570749,0.00193715,-0.28
 995462,-0.06559862,0.03459057,-0.00002266,0.00000431,-0.00001378,0.000
 03492,0.00003947,0.00002716,0.00001252,-0.00000750,0.00003456,-0.00032
 881,0.00036673,0.00013582,0.00000858,0.00006527,-0.00003624,0.00041166
 ,0.00002652,-0.00004992,0.00029332,-0.00006151,0.00000916,0.00045813,0
 .00006036,-0.00060773,0.00074898,-0.00000235,0.00039162,-0.00008250,-0
 .00028475,0.00005520,-0.00922294,-0.00252386,0.00150567,0.31477616,-0.
 00010398,-0.00005233,-0.00007080,0.00006365,0.00018101,0.00029018,0.00
 166372,0.00075277,-0.00036789,0.00155665,-0.00522313,-0.00096667,0.028
 34306,0.00854475,-0.00381547,-0.06643976,-0.06548053,0.00960990,0.0000
 1668,-0.00000690,0.00000762,-0.00000669,-0.00002529,-0.00001004,0.0000
 0811,-0.00000452,-0.00003190,0.00039876,-0.00046900,-0.00015607,-0.000
 08444,0.00004481,0.00005990,0.00001213,-0.00006649,0.00027153,-0.00000
 911,0.00006269,-0.00034516,-0.00062796,0.00108816,0.00047898,-0.000781
 74,0.00108982,0.00002012,-0.02022395,-0.00566204,0.00130271,-0.0135708
 9,-0.00451997,0.00324200,0.06978576,0.06974620,-0.00004470,-0.00000851
 ,-0.00000314,-0.00003381,0.00013227,0.00007840,0.00046074,0.00017032,0
 .00051746,0.00027496,-0.00147859,-0.00000714,0.00589169,0.00225967,-0.
 00223293,0.03446263,0.00943539,-0.05344183,0.00000459,0.00000008,0.000
 00289,0.00000920,-0.00001384,-0.00001431,-0.00000278,0.00000291,-0.000
 00737,0.00011145,-0.00014046,-0.00005516,0.00004268,-0.00006862,-0.000
 01743,0.00042491,0.00014290,0.00023828,-0.00045405,-0.00022093,0.00025
 616,-0.00044996,-0.00014794,0.00025158,0.00010970,0.00036778,-0.000042
 25,0.02495435,0.00584637,-0.00309383,-0.02704562,-0.00675985,0.0048589
 4,-0.03871598,-0.00951895,0.05271169\\0.00000312,0.00001028,-0.0000052
 8,-0.00000450,-0.00000710,-0.00000051,0.00000645,-0.00000140,0.0000024
 6,-0.00000757,0.00000690,-0.00000124,0.00000604,-0.00001542,-0.0000035
 3,-0.00000357,0.00000972,0.00000363,0.00000111,-0.00000184,0.00000094,
 -0.00000039,-0.00000311,0.00000113,0.00000024,0.00000330,-0.00000090,-
 0.00000200,0.00000351,-0.00000036,0.00000022,0.00000160,-0.00000011,0.
 00000046,-0.00000007,0.00000061,0.00000040,-0.00000029,-0.00000050,0.0
 0000011,0.00000046,0.00000067,-0.00000051,0.00000125,0.00000233,-0.000
 00023,-0.00000218,-0.00000056,0.00000043,-0.00000283,0.00000063,0.0000
 0018,-0.00000279,0.00000060\\\@
 The archive entry for this job was punched.


      HUMANKIND PERIODICALLY GOES THROUGH A SPEEDUP OF ITS AFFAIRS, 
      THEREBY EXPERIENCING THE RACE BETWEEN THE RENEWABLE VITALITY
      OF THE LIVING, AND THE BECKONING VITIATION OF DECADENCE.
      IN THIS PERIODIC RACE, ANY PAUSE BECOMES A LUXURY.
      ONLY THEN CAN ONE REFLECT THAT ALL IS PERMITTED;
      ALL IS POSSIBLE.

                              -- THE APOCRYPHA OF MUAD'DIB
                                 CHILDREN OF DUNE, BY FRANK HERBERT
 Job cpu time:       0 days  0 hours  4 minutes 59.8 seconds.
 Elapsed time:       0 days  0 hours  0 minutes 19.0 seconds.
 File lengths (MBytes):  RWF=     45 Int=      0 D2E=      0 Chk=      4 Scr=      1
 Normal termination of Gaussian 16 at Tue Mar 26 13:23:48 2024.
