          18
 Energy =    -18.93529030 a.u.  #Cluster:    1
C          -0.66117932      2.22223824      1.31178811
C          -1.06272097      0.97319898      1.17209904
C          -1.44225354      0.34035558     -0.12810297
C          -0.58603797     -0.89387466     -0.42938613
C           0.88431340     -0.53432731     -0.62661405
C           1.73290767     -1.76530493     -0.91988458
H          -0.58282402      2.88861895      0.46795127
H          -0.39748433      2.63665737      2.27027637
H          -1.13143297      0.32337006      2.03590406
H          -2.49175145      0.03452581     -0.07742463
H          -1.33890113      1.06565295     -0.93756720
H          -0.96306967     -1.38006576     -1.33225804
H          -0.67667962     -1.60611918      0.39430001
H           0.97305589      0.17388908     -1.45366929
H           1.25582493     -0.03870490      0.27292163
H           1.67307488     -2.47513615     -0.09747897
H           1.38701092     -2.26149542     -1.82446623
H           2.77540238     -1.48831571     -1.05799751
